 Gaussian 16, Revision B.01,
 Gaussian 16:  ES64L-G16RevB.01 20-Dec-2017

 ----------------------------------------------------------------------
 #p PBE1PBE/6-311++G(d,p) scrf=(CPCM,solvent=water,Read) scf=(XQC,Tight
 )
 ----------------------------------------------------------------------

 ------------
 optimisation
 ------------
 Symbolic Z-matrix:
 Charge =  0 Multiplicity = 1

                         Standard orientation:
 ---------------------------------------------------------------------
 Center     Atomic      Atomic             Coordinates (Angstroms)
 Number     Number       Type             X           Y           Z
 ---------------------------------------------------------------------
      1          6           0       -0.045435   -0.297065    0.593792
      2          6           0        1.246482   -0.912587    0.880640
      3          1           0        1.882050   -1.048719    0.004677
      4          6           0       -0.240614    0.262278   -0.619915
      5          1           0        0.581571    0.331249   -1.336068
      6          1           0       -0.836331   -0.333440    1.338002
      7          7           0       -1.421823    0.743906   -1.071436
      8          1           0       -2.245917    0.585497   -0.501490
      9          6           0       -1.544342    1.619306   -2.206443
     10          6           0       -2.964867    1.670599   -2.724762
     11          6           0       -3.913974    0.652467   -2.735364
     12          6           0       -3.270620    2.954557   -3.178909
     13          6           0       -5.192510    0.938897   -3.224870
     14          1           0       -3.669117   -0.335700   -2.343901
     15          1           0       -5.951647    0.161737   -3.241203
     16          6           0       -5.496703    2.216322   -3.702284
     17          1           0       -6.493058    2.424211   -4.080286
     18          6           0       -4.536636    3.230921   -3.684161
     19          1           0       -4.787691    4.228848   -4.033889
     20          6           0       -2.091802    3.881745   -2.971171
     21          1           0       -1.546429    4.024760   -3.913684
     22          1           0       -2.394407    4.871670   -2.614247
     23          6           0       -1.235621    3.113018   -1.943713
     24          1           0       -1.577421    3.347683   -0.928097
     25          1           0       -0.166274    3.338750   -2.005175
     26          1           0       -0.874408    1.240017   -2.995737
     27          6           0       -5.451847   -2.939650   -1.341452
     28          6           0       -5.024558   -4.161660   -0.526709
     29          1           0       -5.890763   -4.600086   -0.013184
     30          1           0       -4.575060   -4.936912   -1.154686
     31          1           0       -4.289981   -3.880828    0.235607
     32          6           0       -6.581916   -3.267520   -2.323830
     33          1           0       -7.466881   -3.584094   -1.753245
     34          1           0       -6.869344   -2.347002   -2.850115
     35          6           0       -6.220985   -4.340251   -3.349471
     36          1           0       -7.016534   -4.463164   -4.090332
     37          1           0       -5.302067   -4.072845   -3.883367
     38          1           0       -6.058715   -5.311939   -2.873726
     39          6           0       -5.413127   -3.673002    3.885900
     40          6           0       -4.700744   -2.687619    4.810501
     41          1           0       -5.243758   -1.735345    4.826195
     42          1           0       -4.704424   -3.066051    5.837611
     43          6           0       -3.240045   -2.439000    4.398147
     44          1           0       -2.775577   -1.682658    5.037745
     45          1           0       -2.663449   -3.362728    4.492365
     46          6           0       -3.167787   -2.000487    2.954542
     47          8           0       -2.844442   -2.791068    2.053802
     48          7           0       -3.556170   -0.742938    2.699586
     49          1           0       -3.818379   -0.118981    3.449778
     50          1           0       -3.625744   -0.385611    1.749931
     51          6           0       -3.808270    7.046980    2.224823
     52          6           0       -2.760426    6.384229    1.324275
     53          1           0       -2.679247    6.942656    0.383558
     54          1           0       -1.776955    6.430976    1.806278
     55          6           0       -3.097478    4.940969    1.034429
     56          6           0       -4.064140    4.604040    0.081444
     57          1           0       -4.547172    5.390758   -0.494734
     58          6           0       -4.422593    3.278972   -0.149821
     59          1           0       -5.163012    3.023804   -0.905253
     60          6           0       -3.794316    2.269705    0.574557
     61          8           0       -4.079877    0.940245    0.365061
     62          1           0       -4.635535    0.835398   -0.427430
     63          6           0       -2.820026    2.575244    1.520689
     64          1           0       -2.309751    1.776372    2.053549
     65          6           0       -2.484639    3.906234    1.747340
     66          1           0       -1.717297    4.140244    2.481593
     67          6           0        0.365849    5.855463   -0.308440
     68          6           0        1.418318    4.884391    0.234492
     69          1           0        1.554316    4.070980   -0.483968
     70          1           0        2.383520    5.402893    0.306017
     71          6           0        1.051242    4.297701    1.576907
     72          6           0        0.886837    5.114525    2.702456
     73          1           0        1.044562    6.187605    2.613515
     74          6           0        0.530617    4.569198    3.933595
     75          1           0        0.410214    5.217334    4.796931
     76          6           0        0.331839    3.192813    4.060177
     77          1           0        0.055887    2.769118    5.021170
     78          6           0        0.496856    2.366622    2.949844
     79          1           0        0.363948    1.289440    3.030258
     80          6           0        0.854807    2.922230    1.720134
     81          1           0        0.980956    2.267579    0.859136
     82          6           0        6.520488    1.650984   -2.858743
     83          6           0        6.801332    1.685002   -1.362099
     84          1           0        5.859651    1.663578   -0.805502
     85          1           0        7.347506    2.591856   -1.084617
     86         16           0        7.779569    0.226400   -0.870268
     87          6           0        7.502487    0.248017    0.941269
     88          1           0        7.890988    1.182903    1.350097
     89          1           0        8.130141   -0.562463    1.322470
     90          6           0        6.060524    0.025391    1.324572
     91          6           0        5.517460   -1.251762    1.138227
     92          6           0        4.182466   -1.526458    1.427173
     93          1           0        6.165204   -2.026189    0.741597
     94          6           0        5.261995    1.058897    1.834653
     95          6           0        5.792089    2.450579    2.082522
     96          1           0        6.548803    2.455327    2.874524
     97          1           0        6.254858    2.879377    1.188007
     98          1           0        4.981405    3.115126    2.390701
     99          6           0        3.925621    0.771344    2.129630
    100          1           0        3.264227    1.546400    2.508285
    101          6           0        3.380154   -0.484611    1.919196
    102          7           0        1.980451   -0.638127    2.119462
    103          6           0        1.469495   -1.987633    1.941587
    104          6           0        0.268520   -2.346678    2.757109
    105          8           0       -0.391283   -1.540194    3.384248
    106          7           0       -0.078727   -3.665143    2.637382
    107          1           0       -1.028537   -3.915339    2.902077
    108          6           0        0.667414   -4.656757    1.981823
    109          8           0        0.172052   -5.756985    1.832575
    110          7           0        1.954256   -4.355809    1.579381
    111          6           0        2.359990   -3.119967    1.592893
    112          7           0        3.638749   -2.823154    1.239369
    113          6           0        4.528763   -3.887141    0.783765
    114          6           0        4.831424   -2.064242   -2.651600
    115          6           0        3.356260   -1.801155   -2.335053
    116          1           0        2.717294   -2.386845   -3.005350
    117          1           0        3.139034   -2.159698   -1.318325
    118          6           0        2.994661   -0.340267   -2.452005
    119          6           0        3.437909    0.585393   -1.498627
    120          1           0        4.031984    0.237943   -0.654094
    121          6           0        3.148173    1.940751   -1.608218
    122          1           0        3.500850    2.651519   -0.865060
    123          6           0        2.412151    2.400902   -2.703295
    124          8           0        2.181637    3.742721   -2.793247
    125          1           0        1.660786    3.928211   -3.589660
    126          6           0        1.947345    1.495657   -3.656887
    127          1           0        1.367395    1.852701   -4.505203
    128          6           0        2.241367    0.139165   -3.525038
    129          1           0        1.878803   -0.556577   -4.277689
    130          6           0        2.623041   -5.318992   -2.106886
    131          6           0        1.446546   -4.989246   -3.030112
    132          1           0        1.811851   -4.452546   -3.914079
    133          1           0        1.014467   -5.927517   -3.402004
    134          6           0        0.368900   -4.163940   -2.360362
    135          6           0       -0.141705   -3.003268   -2.949138
    136          1           0        0.248725   -2.681236   -3.913008
    137          6           0       -1.141505   -2.248876   -2.339457
    138          1           0       -1.516839   -1.339616   -2.799648
    139          6           0       -1.649875   -2.642537   -1.099389
    140          8           0       -2.601870   -1.879551   -0.501724
    141          1           0       -2.743204   -2.221200    0.415236
    142          6           0       -1.168860   -3.814797   -0.506235
    143          1           0       -1.582214   -4.144255    0.442818
    144          6           0       -0.171810   -4.555507   -1.132374
    145          1           0        0.182563   -5.458413   -0.642056
    146          1           0        5.953238    2.540397   -3.148767
    147          1           0        5.926229    0.769922   -3.119437
    148          1           0        7.448245    1.631609   -3.438475
    149          1           0        4.963124   -3.609196   -0.181031
    150          1           0        3.945465   -4.796978    0.677052
    151          1           0        5.330778   -4.044208    1.510717
    152          1           0       -0.618280    5.375640   -0.345379
    153          1           0        0.630065    6.181091   -1.319844
    154          1           0        0.278824    6.745753    0.323279
    155          1           0       -3.881704    6.518926    3.180648
    156          1           0       -4.795711    7.023416    1.752749
    157          1           0       -3.551486    8.090840    2.427705
    158          6           0       -5.869833   -1.808648   -0.403165
    159          1           0       -4.582034   -2.598970   -1.920724
    160          1           0       -6.735603   -2.107255    0.201546
    161          1           0       -6.154376   -0.907402   -0.962284
    162          1           0       -5.054761   -1.550795    0.281552
    163          1           0        2.299762   -5.904381   -1.240581
    164          1           0        3.082674   -4.402056   -1.725069
    165          1           0        3.388800   -5.893534   -2.637006
    166          1           0       -6.420266   -3.891376    4.250626
    167          1           0       -4.860539   -4.616116    3.820612
    168          1           0       -5.502486   -3.272061    2.870248
    169          1           0        5.482914   -1.530776   -1.948913
    170          1           0        5.075805   -1.721267   -3.662455
    171          1           0        5.062025   -3.133764   -2.592647
 ---------------------------------------------------------------------

 SCF Done:  E(RPBE1PBE) =  -3820.30565227     A.U. after   17 cycles

 The electronic state is 1-A.
 Alpha  occ. eigenvalues --  -89.01443 -19.25108 -19.24623 -19.20684 -19.19557
 Alpha  occ. eigenvalues --  -19.18965 -19.18346 -14.45926 -14.42923 -14.41728
 Alpha  occ. eigenvalues --  -14.40788 -14.38754 -14.38124 -10.36218 -10.35091
 Alpha  occ. eigenvalues --  -10.34240 -10.33999 -10.29902 -10.29708 -10.29261
 Alpha  occ. eigenvalues --  -10.29056 -10.28816 -10.27736 -10.27303 -10.26666
 Alpha  occ. eigenvalues --  -10.26025 -10.25953 -10.25485 -10.25017 -10.24956
 Alpha  occ. eigenvalues --  -10.24840 -10.24214 -10.23892 -10.23735 -10.23661
 Alpha  occ. eigenvalues --  -10.23633 -10.23583 -10.23563 -10.23540 -10.23535
 Alpha  occ. eigenvalues --  -10.23430 -10.23387 -10.23322 -10.23205 -10.23204
 Alpha  occ. eigenvalues --  -10.23189 -10.23112 -10.23051 -10.23048 -10.22851
 Alpha  occ. eigenvalues --  -10.22793 -10.22760 -10.22688 -10.22619 -10.22539
 Alpha  occ. eigenvalues --  -10.22365 -10.22358 -10.22304 -10.22168 -10.22036
 Alpha  occ. eigenvalues --  -10.21890 -10.21832 -10.21804 -10.21710 -10.21700
 Alpha  occ. eigenvalues --  -10.21691 -10.21531 -10.21335 -10.21278 -10.21186
 Alpha  occ. eigenvalues --  -10.21007 -10.21002 -10.21001 -10.20787 -10.20737
 Alpha  occ. eigenvalues --  -10.20681 -10.20358 -10.20148 -10.20046 -10.20028
 Alpha  occ. eigenvalues --  -10.19329  -7.99815  -5.93581  -5.93227  -5.92576
 Alpha  occ. eigenvalues --   -1.10996  -1.10658  -1.10498  -1.08833  -1.08440
 Alpha  occ. eigenvalues --   -1.06801  -1.06295  -1.02075  -0.98097  -0.96907
 Alpha  occ. eigenvalues --   -0.94535  -0.93812  -0.90511  -0.90418  -0.89331
 Alpha  occ. eigenvalues --   -0.88953  -0.88399  -0.87294  -0.84935  -0.84336
 Alpha  occ. eigenvalues --   -0.82875  -0.82408  -0.82050  -0.81492  -0.81201
 Alpha  occ. eigenvalues --   -0.80867  -0.80801  -0.79998  -0.79911  -0.78428
 Alpha  occ. eigenvalues --   -0.78323  -0.77924  -0.77803  -0.76683  -0.76493
 Alpha  occ. eigenvalues --   -0.76200  -0.74896  -0.74767  -0.74643  -0.74495
 Alpha  occ. eigenvalues --   -0.74232  -0.73887  -0.73255  -0.73027  -0.72528
 Alpha  occ. eigenvalues --   -0.71841  -0.69448  -0.68694  -0.68018  -0.66451
 Alpha  occ. eigenvalues --   -0.65999  -0.65814  -0.65180  -0.65103  -0.64763
 Alpha  occ. eigenvalues --   -0.64514  -0.64509  -0.64003  -0.63788  -0.63749
 Alpha  occ. eigenvalues --   -0.63704  -0.62957  -0.62465  -0.62094  -0.61496
 Alpha  occ. eigenvalues --   -0.61000  -0.60661  -0.60484  -0.60365  -0.60287
 Alpha  occ. eigenvalues --   -0.59905  -0.59141  -0.58924  -0.58875  -0.57429
 Alpha  occ. eigenvalues --   -0.57250  -0.57039  -0.56423  -0.56192  -0.55109
 Alpha  occ. eigenvalues --   -0.54732  -0.53913  -0.52637  -0.52526  -0.52211
 Alpha  occ. eigenvalues --   -0.51637  -0.51534  -0.51136  -0.50720  -0.50491
 Alpha  occ. eigenvalues --   -0.50296  -0.49684  -0.49505  -0.49109  -0.48966
 Alpha  occ. eigenvalues --   -0.48860  -0.48329  -0.48268  -0.47993  -0.47859
 Alpha  occ. eigenvalues --   -0.47660  -0.47394  -0.47159  -0.47043  -0.46904
 Alpha  occ. eigenvalues --   -0.46780  -0.46651  -0.46592  -0.46302  -0.45978
 Alpha  occ. eigenvalues --   -0.45930  -0.45694  -0.45371  -0.45317  -0.45198
 Alpha  occ. eigenvalues --   -0.45014  -0.44871  -0.44756  -0.44692  -0.44453
 Alpha  occ. eigenvalues --   -0.44361  -0.44134  -0.44090  -0.43932  -0.43854
 Alpha  occ. eigenvalues --   -0.43822  -0.43632  -0.43509  -0.43399  -0.43370
 Alpha  occ. eigenvalues --   -0.43091  -0.42860  -0.42612  -0.42439  -0.42338
 Alpha  occ. eigenvalues --   -0.42266  -0.42109  -0.41937  -0.41697  -0.41521
 Alpha  occ. eigenvalues --   -0.41481  -0.41267  -0.41166  -0.41143  -0.40932
 Alpha  occ. eigenvalues --   -0.40433  -0.40415  -0.40285  -0.39843  -0.39640
 Alpha  occ. eigenvalues --   -0.39569  -0.39459  -0.39023  -0.38945  -0.38903
 Alpha  occ. eigenvalues --   -0.38387  -0.38206  -0.38144  -0.37950  -0.37763
 Alpha  occ. eigenvalues --   -0.37708  -0.37529  -0.37191  -0.37157  -0.36895
 Alpha  occ. eigenvalues --   -0.36753  -0.36548  -0.36442  -0.36370  -0.36310
 Alpha  occ. eigenvalues --   -0.36204  -0.35852  -0.35746  -0.35649  -0.35622
 Alpha  occ. eigenvalues --   -0.35479  -0.35273  -0.35257  -0.35030  -0.34979
 Alpha  occ. eigenvalues --   -0.34834  -0.34775  -0.34526  -0.34290  -0.34197
 Alpha  occ. eigenvalues --   -0.33947  -0.33821  -0.33566  -0.33177  -0.32965
 Alpha  occ. eigenvalues --   -0.32510  -0.32433  -0.32257  -0.31963  -0.31667
 Alpha  occ. eigenvalues --   -0.31397  -0.31145  -0.30560  -0.30479  -0.29834
 Alpha  occ. eigenvalues --   -0.29108  -0.28729  -0.28688  -0.27798  -0.27656
 Alpha  occ. eigenvalues --   -0.27374  -0.26771  -0.26216  -0.25932  -0.25737
 Alpha  occ. eigenvalues --   -0.25492  -0.24277  -0.24032  -0.23780  -0.23674
 Alpha  occ. eigenvalues --   -0.21948  -0.19793
 Alpha virt. eigenvalues --   -0.05951  -0.03141  -0.02698  -0.02336  -0.01697
 Alpha virt. eigenvalues --   -0.01585  -0.01512  -0.01146  -0.00847  -0.00582
 Alpha virt. eigenvalues --   -0.00549  -0.00485  -0.00298  -0.00164   0.00085

 Mulliken charges:
               1
     1  C   -0.323213
     2  C   -1.076404
     3  H    0.027574
     4  C   -0.535543
     5  H    0.155101
     6  H   -0.113413
     7  N    0.535457
     8  H   -0.125800
     9  C    0.017851
    10  C    0.042580
    11  C    0.223120
    12  C    0.195198
    13  C   -0.228905
    14  H    0.067518
    15  H    0.302641
    16  C   -0.570094
    17  H    0.246178
    18  C   -0.405213
    19  H    0.219416
    20  C   -0.769870
    21  H    0.258950
    22  H    0.272363
    23  C   -0.043027
    24  H   -0.033194
    25  H    0.192103
    26  H    0.417186
    27  C    1.445450
    28  C   -1.155821
    29  H    0.227175
    30  H    0.188921
    31  H    0.143904
    32  C   -0.105349
    33  H    0.193234
    34  H    0.153786
    35  C   -0.735461
    36  H    0.200623
    37  H    0.200277
    38  H    0.182512
    39  C   -0.735115
    40  C   -0.517366
    41  H    0.180475
    42  H    0.248043
    43  C   -0.606454
    44  H    0.276933
    45  H    0.230104
    46  C   -0.571489
    47  O    0.104590
    48  N    0.008088
    49  H    0.388361
    50  H    0.522967
    51  C   -1.099055
    52  C   -0.429750
    53  H    0.226682
    54  H    0.234729
    55  C    0.247290
    56  C   -1.118601
    57  H    0.292867
    58  C    0.364673
    59  H    0.231543
    60  C    0.228315
    61  O    0.006088
    62  H    0.272831
    63  C   -0.508855
    64  H    0.196851
    65  C   -0.040619
    66  H    0.331486
    67  C   -1.001297
    68  C   -0.310506
    69  H   -0.025743
    70  H    0.270800
    71  C    0.564848
    72  C   -0.469557
    73  H    0.225428
    74  C   -0.518336
    75  H    0.250540
    76  C   -0.264420
    77  H    0.245543
    78  C   -0.150382
    79  H    0.484604
    80  C    0.263523
    81  H   -0.062019
    82  C   -0.910124
    83  C   -0.272115
    84  H    0.001328
    85  H    0.325683
    86  S    0.295206
    87  C   -1.790669
    88  H    0.300247
    89  H    0.299732
    90  C    0.938655
    91  C   -0.576196
    92  C   -0.102571
    93  H    0.344623
    94  C   -0.045073
    95  C   -0.636861
    96  H    0.255637
    97  H    0.224167
    98  H    0.189998
    99  C   -0.008856
   100  H    0.297011
   101  C   -0.257729
   102  N    1.079315
   103  C   -0.707662
   104  C    0.373139
   105  O   -0.026224
   106  N   -0.005934
   107  H    0.477441
   108  C   -0.346376
   109  O   -0.204124
   110  N    0.110551
   111  C   -0.214411
   112  N    0.520397
   113  C   -0.353374
   114  C   -1.064734
   115  C    0.074914
   116  H    0.415458
   117  H    0.102812
   118  C    0.223403
   119  C    0.383467
   120  H   -0.000488
   121  C   -0.352013
   122  H    0.511314
   123  C   -0.574848
   124  O   -0.022827
   125  H    0.330163
   126  C   -0.404667
   127  H    0.237707
   128  C   -0.339109
   129  H    0.236113
   130  C   -0.540051
   131  C   -0.642817
   132  H    0.178168
   133  H    0.258472
   134  C    0.626333
   135  C   -0.769819
   136  H    0.255372
   137  C   -0.157015
   138  H    0.184738
   139  C   -0.115374
   140  O    0.433640
   141  H   -0.782989
   142  C   -0.012573
   143  H    0.200717
   144  C   -0.449812
   145  H    0.279909
   146  H    0.203405
   147  H    0.161752
   148  H    0.226244
   149  H    0.193811
   150  H    0.288188
   151  H    0.233086
   152  H    0.130433
   153  H    0.216337
   154  H    0.217592
   155  H    0.193946
   156  H    0.193092
   157  H    0.198413
   158  C   -0.890842
   159  H   -0.124684
   160  H    0.228017
   161  H    0.176563
   162  H   -0.127716
   163  H    0.172619
   164  H   -0.000163
   165  H    0.233790
   166  H    0.207636
   167  H    0.193052
   168  H    0.174256
   169  H    0.258824
   170  H    0.224375
   171  H    0.183126
 Sum of Mulliken charges =  -0.00000

 Dipole moment (field-independent basis, Debye):
    X=             -0.2152    Y=             11.6846    Z=             -2.3741  Tot=             11.9253
 Quadrupole moment (field-independent basis, Debye-Ang):
   XX=           -469.8865   YY=           -518.9095   ZZ=           -473.8865
   XY=            -14.4685   XZ=             -0.8551   YZ=             -9.1195

 Normal termination of Gaussian 16 at Mon Apr  4 12:39:01 2022.
