 Gaussian 16, Revision B.01,
 Gaussian 16:  ES64L-G16RevB.01 20-Dec-2017

 ----------------------------------------------------------------------
 #p PBE1PBE/6-311++G(d,p) scrf=(CPCM,solvent=water,Read) scf=(XQC,Tight
 )
 ----------------------------------------------------------------------

 ------------
 optimisation
 ------------
 Symbolic Z-matrix:
 Charge =  0 Multiplicity = 1

                         Standard orientation:
 ---------------------------------------------------------------------
 Center     Atomic      Atomic             Coordinates (Angstroms)
 Number     Number       Type             X           Y           Z
 ---------------------------------------------------------------------
      1          6           0       -0.861181   -0.496285   -0.083830
      2          6           0       -1.228698   -1.670848   -0.571097
      3          1           0       -1.095592   -2.660431   -0.145047
      4          6           0       -0.239520   -0.085291    1.108409
      5          1           0       -0.811737    0.017807    2.031829
      6          1           0       -1.252109    0.241075   -1.056377
      7          7           0        1.001008    0.324268    1.166903
      8          1           0        1.580311    0.219907    0.328522
      9          6           0        1.583617    1.010178    2.314998
     10          6           0        2.981206    0.537705    2.644371
     11          6           0        3.481214   -0.759972    2.649476
     12          6           0        3.777138    1.629084    2.996842
     13          6           0        4.815919   -0.956020    3.006280
     14          1           0        2.852196   -1.608555    2.384596
     15          1           0        5.228176   -1.959823    3.023186
     16          6           0        5.624717    0.131405    3.350641
     17          1           0        6.661800   -0.037661    3.623949
     18          6           0        5.108426    1.430424    3.353475
     19          1           0        5.739062    2.271939    3.626984
     20          6           0        2.985541    2.915184    2.929483
     21          1           0        2.675011    3.217045    3.937273
     22          1           0        3.555575    3.740856    2.494450
     23          6           0        1.767634    2.524522    2.068418
     24          1           0        2.009740    2.676892    1.008855
     25          1           0        0.857472    3.087618    2.295819
     26          1           0        0.902853    0.830009    3.156719
     27          6           0        5.505580   -3.517906    0.683752
     28          6           0        5.037111   -4.481582   -0.406417
     29          1           0        5.898969   -4.935180   -0.912057
     30          1           0        4.415945   -5.284259    0.001107
     31          1           0        4.439188   -3.962494   -1.163201
     32          6           0        6.286034   -4.247177    1.784359
     33          1           0        7.128305   -4.782938    1.324345
     34          1           0        6.735473   -3.503391    2.456936
     35          6           0        5.435172   -5.215150    2.604576
     36          1           0        6.007905   -5.641729    3.433109
     37          1           0        4.563075   -4.700807    3.025994
     38          1           0        5.065963   -6.045367    1.995723
     39          6           0        5.436209   -1.960383   -3.531171
     40          6           0        4.611894   -0.710730   -3.229817
     41          1           0        4.973384   -0.231300   -2.310313
     42          1           0        4.754489    0.024721   -4.028395
     43          6           0        3.110645   -1.013927   -3.125125
     44          1           0        2.527774   -0.087289   -3.075129
     45          1           0        2.763301   -1.561446   -4.003366
     46          6           0        2.753027   -1.850863   -1.915321
     47          8           0        2.263041   -2.981143   -2.008342
     48          7           0        2.990804   -1.279423   -0.699067
     49          1           0        3.697667   -0.552087   -0.595403
     50          1           0        2.868306   -1.889875    0.106288
     51          6           0        4.817521    6.691753   -2.261691
     52          6           0        3.777450    6.138545   -1.281544
     53          1           0        3.739395    6.774983   -0.389068
     54          1           0        2.782739    6.175145   -1.740429
     55          6           0        4.080108    4.714454   -0.881815
     56          6           0        5.082211    4.423975    0.049330
     57          1           0        5.625318    5.239077    0.522885
     58          6           0        5.406828    3.111566    0.381092
     59          1           0        6.193825    2.899630    1.099693
     60          6           0        4.709751    2.061503   -0.216206
     61          8           0        4.986159    0.746754    0.058582
     62          1           0        5.442322    0.664026    0.915082
     63          6           0        3.708910    2.327946   -1.147138
     64          1           0        3.158972    1.507783   -1.602187
     65          6           0        3.403191    3.645585   -1.473473
     66          1           0        2.615514    3.841503   -2.196254
     67          6           0        0.770379    5.756081    0.597735
     68          6           0       -0.425289    4.951756    0.075916
     69          1           0       -0.737440    4.232702    0.840178
     70          1           0       -1.273194    5.629682   -0.083686
     71          6           0       -0.110121    4.216142   -1.204027
     72          6           0        0.076840    4.908850   -2.406385
     73          1           0       -0.036435    5.991178   -2.422263
     74          6           0        0.395512    4.227588   -3.579080
     75          1           0        0.529759    4.779648   -4.504804
     76          6           0        0.535059    2.838234   -3.567493
     77          1           0        0.774749    2.304501   -4.482348
     78          6           0        0.343449    2.133148   -2.380668
     79          1           0        0.396636    1.046474   -2.380964
     80          6           0        0.022995    2.825893   -1.212078
     81          1           0       -0.155683    2.279989   -0.287009
     82          6           0       -6.109529    2.320784    3.201763
     83          6           0       -6.300731    2.672750    1.732888
     84          1           0       -5.369720    2.498641    1.186198
     85          1           0       -6.582242    3.724226    1.615659
     86         16           0       -7.585228    1.624038    0.976754
     87          6           0       -7.197760    1.888865   -0.802062
     88          1           0       -7.329238    2.949435   -1.029371
     89          1           0       -7.987292    1.343276   -1.327216
     90          6           0       -5.837583    1.393510   -1.216267
     91          6           0       -5.635111    0.016620   -1.353301
     92          6           0       -4.395946   -0.513739   -1.703218
     93          1           0       -6.477868   -0.642713   -1.166564
     94          6           0       -4.763023    2.267586   -1.468840
     95          6           0       -4.914158    3.770109   -1.404548
     96          1           0       -5.599439    4.136024   -2.177489
     97          1           0       -5.306317    4.108351   -0.440183
     98          1           0       -3.946397    4.254593   -1.560993
     99          6           0       -3.528790    1.729036   -1.817547
    100          1           0       -2.681978    2.384176   -2.012622
    101          6           0       -3.296069    0.346605   -1.927440
    102          7           0       -2.035550   -0.094702   -2.230715
    103          6           0       -1.815961   -1.493198   -2.016731
    104          6           0       -0.649969   -1.964053   -2.888810
    105          8           0        0.206742   -1.213471   -3.307989
    106          7           0       -0.583195   -3.322501   -3.030780
    107          1           0        0.293607   -3.715675   -3.359986
    108          6           0       -1.631256   -4.216729   -2.752315
    109          8           0       -1.419018   -5.412538   -2.858450
    110          7           0       -2.863903   -3.701433   -2.424809
    111          6           0       -2.995015   -2.426757   -2.158474
    112          7           0       -4.214314   -1.908012   -1.908974
    113          6           0       -5.399946   -2.758502   -1.965763
    114          6           0       -5.299491   -1.524811    2.120410
    115          6           0       -3.801251   -1.514905    2.427506
    116          1           0       -3.603736   -2.122666    3.318283
    117          1           0       -3.254678   -1.990561    1.599732
    118          6           0       -3.232931   -0.131777    2.640368
    119          6           0       -3.301286    0.832026    1.625365
    120          1           0       -3.801766    0.594475    0.688413
    121          6           0       -2.717717    2.085708    1.771867
    122          1           0       -2.769559    2.818148    0.969294
    123          6           0       -2.062254    2.409191    2.963565
    124          8           0       -1.511447    3.653775    3.068632
    125          1           0       -1.129138    3.764675    3.952532
    126          6           0       -1.990062    1.469451    3.992327
    127          1           0       -1.484769    1.719618    4.922399
    128          6           0       -2.575363    0.213545    3.823187
    129          1           0       -2.505233   -0.513635    4.628391
    130          6           0       -4.212349   -4.643137    0.591070
    131          6           0       -3.286382   -5.014947    1.751727
    132          1           0       -3.596197   -4.481712    2.658260
    133          1           0       -3.394313   -6.084870    1.970625
    134          6           0       -1.836312   -4.697953    1.461807
    135          6           0       -1.074072   -3.901496    2.320930
    136          1           0       -1.528472   -3.507749    3.227422
    137          6           0        0.255007   -3.590329    2.039252
    138          1           0        0.836011   -2.964140    2.710355
    139          6           0        0.844942   -4.073960    0.872786
    140          8           0        2.145327   -3.750347    0.608058
    141          1           0        2.266558   -3.766416   -0.371852
    142          6           0        0.104915   -4.880512    0.004128
    143          1           0        0.554672   -5.248625   -0.914636
    144          6           0       -1.219097   -5.184341    0.303569
    145          1           0       -1.778654   -5.794815   -0.399908
    146          1           0       -5.348277    2.972432    3.642100
    147          1           0       -5.770376    1.286229    3.307570
    148          1           0       -7.036916    2.445038    3.769190
    149          1           0       -5.903467   -2.760290   -0.994770
    150          1           0       -5.086109   -3.768118   -2.214493
    151          1           0       -6.085035   -2.375424   -2.726807
    152          1           0        1.654668    5.115983    0.699886
    153          1           0        0.545856    6.198731    1.573366
    154          1           0        1.028995    6.566349   -0.091561
    155          1           0        4.847595    6.084864   -3.171848
    156          1           0        5.817377    6.676981   -1.816122
    157          1           0        4.584609    7.722778   -2.543305
    158          6           0        6.343245   -2.387395    0.087680
    159          1           0        4.607625   -3.078821    1.144089
    160          1           0        7.232359   -2.789505   -0.413991
    161          1           0        6.682778   -1.692013    0.865036
    162          1           0        5.772690   -1.812437   -0.649708
    163          1           0       -3.969500   -5.206518   -0.314410
    164          1           0       -4.106205   -3.580987    0.342328
    165          1           0       -5.259790   -4.836824    0.844722
    166          1           0        6.503592   -1.727167   -3.581919
    167          1           0        5.135415   -2.397017   -4.488899
    168          1           0        5.300564   -2.727535   -2.761519
    169          1           0       -5.524686   -0.927014    1.230442
    170          1           0       -5.872545   -1.106820    2.954370
    171          1           0       -5.651823   -2.546498    1.944446
 ---------------------------------------------------------------------

 SCF Done:  E(RPBE1PBE) =  -3820.24956282     A.U. after   17 cycles

 The electronic state is 1-A.
 Alpha  occ. eigenvalues --  -89.00550 -19.24964 -19.24859 -19.22478 -19.19228
 Alpha  occ. eigenvalues --  -19.18684 -19.17552 -14.46481 -14.45062 -14.42153
 Alpha  occ. eigenvalues --  -14.40350 -14.36941 -14.35318 -10.35408 -10.34103
 Alpha  occ. eigenvalues --  -10.33836 -10.32801 -10.32096 -10.30018 -10.29719
 Alpha  occ. eigenvalues --  -10.29609 -10.28565 -10.28536 -10.26535 -10.25607
 Alpha  occ. eigenvalues --  -10.25363 -10.25302 -10.25220 -10.25073 -10.24963
 Alpha  occ. eigenvalues --  -10.24878 -10.24774 -10.24621 -10.24605 -10.24339
 Alpha  occ. eigenvalues --  -10.23927 -10.23912 -10.23868 -10.23782 -10.23699
 Alpha  occ. eigenvalues --  -10.23508 -10.23461 -10.23446 -10.23405 -10.23324
 Alpha  occ. eigenvalues --  -10.23320 -10.23188 -10.23095 -10.22969 -10.22956
 Alpha  occ. eigenvalues --  -10.22894 -10.22887 -10.22795 -10.22744 -10.22669
 Alpha  occ. eigenvalues --  -10.22605 -10.22572 -10.22565 -10.22490 -10.22359
 Alpha  occ. eigenvalues --  -10.22352 -10.22342 -10.22287 -10.22286 -10.22279
 Alpha  occ. eigenvalues --  -10.22132 -10.22038 -10.22024 -10.22008 -10.21457
 Alpha  occ. eigenvalues --  -10.21317 -10.21184 -10.21127 -10.21039 -10.20948
 Alpha  occ. eigenvalues --  -10.20805 -10.20565 -10.20474 -10.20407 -10.20374
 Alpha  occ. eigenvalues --  -10.20025  -7.98926  -5.92686  -5.92341  -5.91694
 Alpha  occ. eigenvalues --   -1.10794  -1.10491  -1.09956  -1.09160  -1.07941
 Alpha  occ. eigenvalues --   -1.07709  -1.03898  -1.03202  -0.97085  -0.94811
 Alpha  occ. eigenvalues --   -0.94022  -0.92487  -0.92396  -0.89537  -0.89256
 Alpha  occ. eigenvalues --   -0.88607  -0.88522  -0.88318  -0.86396  -0.83895
 Alpha  occ. eigenvalues --   -0.83517  -0.82438  -0.82181  -0.81420  -0.81415
 Alpha  occ. eigenvalues --   -0.81114  -0.80782  -0.80656  -0.79546  -0.78926
 Alpha  occ. eigenvalues --   -0.78361  -0.78145  -0.77376  -0.77114  -0.76860
 Alpha  occ. eigenvalues --   -0.76341  -0.75658  -0.75395  -0.74748  -0.74721
 Alpha  occ. eigenvalues --   -0.74484  -0.73964  -0.73931  -0.73053  -0.72290
 Alpha  occ. eigenvalues --   -0.71447  -0.70086  -0.69670  -0.66957  -0.66607
 Alpha  occ. eigenvalues --   -0.66243  -0.66132  -0.65408  -0.65241  -0.65176
 Alpha  occ. eigenvalues --   -0.64991  -0.64670  -0.64344  -0.64215  -0.64049
 Alpha  occ. eigenvalues --   -0.63874  -0.63579  -0.62425  -0.62154  -0.61839
 Alpha  occ. eigenvalues --   -0.61004  -0.60776  -0.60597  -0.60330  -0.59904
 Alpha  occ. eigenvalues --   -0.59788  -0.59356  -0.58870  -0.57599  -0.57429
 Alpha  occ. eigenvalues --   -0.57397  -0.57310  -0.56687  -0.56141  -0.55849
 Alpha  occ. eigenvalues --   -0.55375  -0.54126  -0.53053  -0.53018  -0.52370
 Alpha  occ. eigenvalues --   -0.51661  -0.51543  -0.51308  -0.51125  -0.50433
 Alpha  occ. eigenvalues --   -0.50092  -0.49993  -0.49576  -0.49362  -0.49246
 Alpha  occ. eigenvalues --   -0.48977  -0.48652  -0.48623  -0.48204  -0.48068
 Alpha  occ. eigenvalues --   -0.48034  -0.47691  -0.47362  -0.47203  -0.46901
 Alpha  occ. eigenvalues --   -0.46839  -0.46553  -0.46456  -0.46266  -0.46029
 Alpha  occ. eigenvalues --   -0.45832  -0.45686  -0.45638  -0.45554  -0.45389
 Alpha  occ. eigenvalues --   -0.45250  -0.45004  -0.44985  -0.44915  -0.44829
 Alpha  occ. eigenvalues --   -0.44649  -0.44543  -0.44304  -0.44238  -0.44158
 Alpha  occ. eigenvalues --   -0.44046  -0.43910  -0.43752  -0.43488  -0.43402
 Alpha  occ. eigenvalues --   -0.43225  -0.43137  -0.42859  -0.42625  -0.42466
 Alpha  occ. eigenvalues --   -0.42350  -0.42273  -0.42073  -0.41816  -0.41711
 Alpha  occ. eigenvalues --   -0.41655  -0.41428  -0.41248  -0.41142  -0.40928
 Alpha  occ. eigenvalues --   -0.40781  -0.40665  -0.40307  -0.39859  -0.39720
 Alpha  occ. eigenvalues --   -0.39391  -0.39295  -0.39132  -0.39019  -0.38965
 Alpha  occ. eigenvalues --   -0.38907  -0.38866  -0.38408  -0.38129  -0.38072
 Alpha  occ. eigenvalues --   -0.37835  -0.37325  -0.37268  -0.37111  -0.37044
 Alpha  occ. eigenvalues --   -0.36873  -0.36570  -0.36553  -0.36398  -0.36367
 Alpha  occ. eigenvalues --   -0.36169  -0.36118  -0.35883  -0.35808  -0.35763
 Alpha  occ. eigenvalues --   -0.35548  -0.35320  -0.35300  -0.35180  -0.35018
 Alpha  occ. eigenvalues --   -0.34996  -0.34833  -0.34670  -0.34563  -0.34433
 Alpha  occ. eigenvalues --   -0.34253  -0.33954  -0.33813  -0.33709  -0.33431
 Alpha  occ. eigenvalues --   -0.32912  -0.32832  -0.32164  -0.31776  -0.31611
 Alpha  occ. eigenvalues --   -0.30624  -0.30300  -0.29596  -0.29329  -0.29168
 Alpha  occ. eigenvalues --   -0.28830  -0.28719  -0.28661  -0.28017  -0.27718
 Alpha  occ. eigenvalues --   -0.27466  -0.27112  -0.26909  -0.26521  -0.25743
 Alpha  occ. eigenvalues --   -0.25094  -0.24492  -0.24252  -0.23925  -0.23413
 Alpha  occ. eigenvalues --   -0.22909  -0.18741
 Alpha virt. eigenvalues --   -0.06774  -0.04403  -0.04038  -0.03117  -0.02780
 Alpha virt. eigenvalues --   -0.01885  -0.01645  -0.01303  -0.01240  -0.01114
 Alpha virt. eigenvalues --   -0.00951  -0.00721  -0.00657  -0.00294  -0.00261

 Mulliken charges:
               1
     1  C    0.085988
     2  C    0.412694
     3  H    0.209186
     4  C   -0.893673
     5  H    0.631391
     6  H    0.275497
     7  N    0.784834
     8  H    0.046842
     9  C   -0.198431
    10  C    0.225770
    11  C   -0.043915
    12  C    0.104865
    13  C   -0.205893
    14  H    0.186902
    15  H    0.328501
    16  C   -0.499495
    17  H    0.258507
    18  C   -0.302891
    19  H    0.245032
    20  C   -1.111481
    21  H    0.270571
    22  H    0.326356
    23  C   -0.292101
    24  H    0.032012
    25  H    0.396113
    26  H    0.327630
    27  C    1.206154
    28  C   -1.047407
    29  H    0.235569
    30  H    0.162464
    31  H    0.194770
    32  C   -0.198508
    33  H    0.220109
    34  H    0.175843
    35  C   -0.723961
    36  H    0.213711
    37  H    0.180676
    38  H    0.180221
    39  C   -1.152695
    40  C   -0.217637
    41  H    0.165957
    42  H    0.299541
    43  C   -0.502203
    44  H    0.191206
    45  H    0.312788
    46  C   -0.296964
    47  O   -0.019063
    48  N   -0.036397
    49  H    0.152834
    50  H   -0.269273
    51  C   -1.071732
    52  C   -0.374764
    53  H    0.229293
    54  H    0.234769
    55  C    0.533290
    56  C   -0.782184
    57  H    0.254777
    58  C   -0.275742
    59  H    0.238435
    60  C    0.233709
    61  O    0.026399
    62  H    0.309602
    63  C   -0.170852
    64  H   -0.234066
    65  C    0.078991
    66  H    0.236819
    67  C   -1.144296
    68  C   -0.213217
    69  H    0.160704
    70  H    0.272927
    71  C    0.549348
    72  C   -0.561242
    73  H    0.235335
    74  C   -0.367034
    75  H    0.257133
    76  C   -0.078360
    77  H    0.256643
    78  C   -0.370595
    79  H    0.134111
    80  C    0.299055
    81  H    0.057191
    82  C   -0.902431
    83  C   -0.207401
    84  H   -0.056485
    85  H    0.337879
    86  S    0.230617
    87  C   -1.738217
    88  H    0.289672
    89  H    0.290708
    90  C    0.913893
    91  C   -0.663588
    92  C   -0.461943
    93  H    0.320464
    94  C   -0.063743
    95  C   -0.628040
    96  H    0.257874
    97  H    0.208432
    98  H    0.178073
    99  C   -0.383654
   100  H    0.299561
   101  C   -0.311431
   102  N    0.292858
   103  C   -1.397335
   104  C    0.419617
   105  O   -0.141526
   106  N   -0.094430
   107  H    0.462295
   108  C   -0.136129
   109  O   -0.253856
   110  N    0.134843
   111  C    0.099610
   112  N    0.617534
   113  C   -0.366203
   114  C   -1.200637
   115  C   -0.215011
   116  H    0.290041
   117  H    0.156693
   118  C    0.198132
   119  C    0.321271
   120  H   -0.063414
   121  C   -0.292358
   122  H    0.575521
   123  C   -0.628390
   124  O   -0.002904
   125  H    0.316900
   126  C   -0.256144
   127  H    0.229752
   128  C   -0.288089
   129  H    0.230804
   130  C   -0.282011
   131  C   -0.917467
   132  H    0.179251
   133  H    0.266122
   134  C    0.498369
   135  C   -0.533156
   136  H    0.259246
   137  C   -0.047339
   138  H    0.304601
   139  C   -0.550396
   140  O    0.143231
   141  H    0.287147
   142  C   -0.009777
   143  H    0.261981
   144  C   -0.421283
   145  H    0.279786
   146  H    0.207142
   147  H    0.156027
   148  H    0.224096
   149  H    0.202063
   150  H    0.290864
   151  H    0.233823
   152  H    0.143237
   153  H    0.223381
   154  H    0.208550
   155  H    0.196998
   156  H    0.191409
   157  H    0.195316
   158  C   -0.826621
   159  H   -0.488537
   160  H    0.222547
   161  H    0.167747
   162  H    0.282014
   163  H    0.241792
   164  H   -0.319214
   165  H    0.243405
   166  H    0.228068
   167  H    0.185019
   168  H    0.153006
   169  H    0.407300
   170  H    0.218662
   171  H    0.190925
 Sum of Mulliken charges =  -0.00000

 Dipole moment (field-independent basis, Debye):
    X=              8.2712    Y=             12.0997    Z=             12.5118  Tot=             19.2707
 Quadrupole moment (field-independent basis, Debye-Ang):
   XX=           -489.2467   YY=           -521.6731   ZZ=           -489.7788
   XY=             14.0108   XZ=             11.9817   YZ=             -6.4134

 Normal termination of Gaussian 16 at Mon Apr  4 12:58:44 2022.
