 Gaussian 16, Revision B.01,
 Gaussian 16:  ES64L-G16RevB.01 20-Dec-2017

 ----------------------------------------------------------------------
 #p PBE1PBE/6-311++G(d,p) scrf=(CPCM,solvent=water,Read) scf=(XQC,Tight
 )
 ----------------------------------------------------------------------

 ------------
 optimisation
 ------------
 Symbolic Z-matrix:
 Charge =  0 Multiplicity = 1

                         Standard orientation:
 ---------------------------------------------------------------------
 Center     Atomic      Atomic             Coordinates (Angstroms)
 Number     Number       Type             X           Y           Z
 ---------------------------------------------------------------------
      1          6           0        0.109137   -0.133542    0.654421
      2          6           0        1.384328   -0.630849    0.822889
      3          1           0        1.991699   -0.799307   -0.068914
      4          6           0       -0.219180    0.307334   -0.626346
      5          1           0        0.532466    0.290421   -1.418346
      6          1           0       -0.563828   -0.010131    1.496703
      7          7           0       -1.377913    0.838741   -0.939829
      8          1           0       -2.147288    0.741322   -0.276262
      9          6           0       -1.636506    1.590594   -2.153293
     10          6           0       -3.081046    1.503983   -2.590942
     11          6           0       -3.942378    0.413291   -2.514299
     12          6           0       -3.505435    2.738688   -3.083596
     13          6           0       -5.258289    0.577317   -2.955796
     14          1           0       -3.603923   -0.532905   -2.092161
     15          1           0       -5.950617   -0.258755   -2.904788
     16          6           0       -5.684784    1.804673   -3.470237
     17          1           0       -6.709718    1.916073   -3.810202
     18          6           0       -4.811047    2.891858   -3.538819
     19          1           0       -5.156147    3.849622   -3.918492
     20          6           0       -2.397221    3.763772   -2.979539
     21          1           0       -1.918880    3.913749   -3.955672
     22          1           0       -2.757955    4.738410   -2.636044
     23          6           0       -1.423953    3.111859   -1.976760
     24          1           0       -1.721388    3.372417   -0.952817
     25          1           0       -0.378474    3.404673   -2.112461
     26          1           0       -0.966240    1.193333   -2.929036
     27          6           0       -5.540428   -2.859360   -1.222704
     28          6           0       -4.977823   -4.162572   -0.652873
     29          1           0       -5.738928   -4.670312   -0.045746
     30          1           0       -4.659083   -4.850842   -1.441340
     31          1           0       -4.115708   -3.962857   -0.009225
     32          6           0       -6.821598   -3.093724   -2.031900
     33          1           0       -7.573936   -3.548929   -1.372141
     34          1           0       -7.234977   -2.122646   -2.337581
     35          6           0       -6.624034   -3.966017   -3.269720
     36          1           0       -7.544886   -4.034372   -3.856287
     37          1           0       -5.843324   -3.549484   -3.916334
     38          1           0       -6.326545   -4.983744   -3.000827
     39          6           0       -5.313893   -3.980230    3.850290
     40          6           0       -4.466317   -3.145379    4.808273
     41          1           0       -4.946596   -2.174689    4.979090
     42          1           0       -4.405239   -3.639725    5.783115
     43          6           0       -3.035834   -2.927340    4.289965
     44          1           0       -2.461129   -2.290015    4.967972
     45          1           0       -2.520623   -3.888048    4.210299
     46          6           0       -3.055918   -2.305938    2.912980
     47          8           0       -2.843663   -2.982826    1.895016
     48          7           0       -3.427653   -1.018268    2.856028
     49          1           0       -3.534918   -0.476483    3.701533
     50          1           0       -3.495721   -0.525050    1.970460
     51          6           0       -4.139077    7.015466    2.201058
     52          6           0       -3.049039    6.398829    1.317966
     53          1           0       -3.017459    6.922056    0.354437
     54          1           0       -2.069093    6.540941    1.788021
     55          6           0       -3.275597    4.923107    1.091256
     56          6           0       -4.237534    4.474032    0.180105
     57          1           0       -4.798155    5.197451   -0.408359
     58          6           0       -4.493442    3.116660    0.004659
     59          1           0       -5.229809    2.774966   -0.719816
     60          6           0       -3.768367    2.191286    0.749790
     61          8           0       -3.922878    0.832574    0.579941
     62          1           0       -4.533480    0.646617   -0.155819
     63          6           0       -2.802487    2.608723    1.660457
     64          1           0       -2.233408    1.873863    2.224261
     65          6           0       -2.565354    3.969148    1.826177
     66          1           0       -1.803848    4.289580    2.533330
     67          6           0        0.046693    6.026381   -0.376269
     68          6           0        1.207660    5.164491    0.128995
     69          1           0        1.404242    4.369850   -0.596279
     70          1           0        2.116597    5.778115    0.173896
     71          6           0        0.945304    4.545795    1.481141
     72          6           0        0.753426    5.345050    2.614499
     73          1           0        0.808789    6.427741    2.520930
     74          6           0        0.501685    4.771915    3.858698
     75          1           0        0.358227    5.407504    4.727614
     76          6           0        0.439678    3.383721    3.991399
     77          1           0        0.248902    2.936287    4.961955
     78          6           0        0.636211    2.575374    2.873059
     79          1           0        0.613897    1.491343    2.968044
     80          6           0        0.884690    3.157919    1.629160
     81          1           0        1.043787    2.521979    0.759374
     82          6           0        6.530483    1.956704   -2.692492
     83          6           0        6.780196    1.893506   -1.190998
     84          1           0        5.830974    1.795411   -0.654829
     85          1           0        7.283338    2.799248   -0.838686
     86         16           0        7.810767    0.443476   -0.790124
     87          6           0        7.533015    0.331920    1.018105
     88          1           0        7.893733    1.247422    1.491224
     89          1           0        8.184785   -0.484314    1.342227
     90          6           0        6.098169    0.039764    1.381330
     91          6           0        5.595436   -1.238823    1.103332
     92          6           0        4.266944   -1.577979    1.361123
     93          1           0        6.265997   -1.961858    0.650905
     94          6           0        5.272580    1.014827    1.955163
     95          6           0        5.760551    2.402368    2.296066
     96          1           0        6.518872    2.379317    3.086307
     97          1           0        6.206498    2.906304    1.432489
     98          1           0        4.930466    3.018982    2.649309
     99          6           0        3.942684    0.666040    2.221328
    100          1           0        3.256858    1.396742    2.643465
    101          6           0        3.442510   -0.588808    1.928242
    102          7           0        2.030866   -0.804310    2.060395
    103          6           0        1.647605   -2.199341    2.019575
    104          6           0        0.401473   -2.567991    2.630797
    105          8           0       -0.374599   -1.792457    3.193821
    106          7           0        0.106314   -3.910605    2.483610
    107          1           0       -0.840729   -4.192470    2.715894
    108          6           0        0.874210   -4.848361    1.783622
    109          8           0        0.403312   -5.964984    1.591728
    110          7           0        2.122719   -4.475641    1.360633
    111          6           0        2.475719   -3.208913    1.470748
    112          7           0        3.748500   -2.847855    1.049118
    113          6           0        4.652252   -3.854108    0.513239
    114          6           0        4.913142   -1.814597   -2.706665
    115          6           0        3.421986   -1.639233   -2.402959
    116          1           0        2.824759   -2.239047   -3.098610
    117          1           0        3.208362   -2.034717   -1.398790
    118          6           0        2.987616   -0.196873   -2.498651
    119          6           0        3.403960    0.745840   -1.548113
    120          1           0        4.023205    0.420059   -0.710864
    121          6           0        3.049944    2.087110   -1.648582
    122          1           0        3.384335    2.812887   -0.911678
    123          6           0        2.276566    2.515234   -2.731908
    124          8           0        1.987354    3.845538   -2.819919
    125          1           0        1.492534    4.015947   -3.636152
    126          6           0        1.832050    1.591795   -3.677311
    127          1           0        1.224315    1.924482   -4.516055
    128          6           0        2.191821    0.250136   -3.555272
    129          1           0        1.852162   -0.459387   -4.305431
    130          6           0        2.763441   -5.182822   -2.322763
    131          6           0        1.559886   -4.843368   -3.206316
    132          1           0        1.895410   -4.288617   -4.091084
    133          1           0        1.120287   -5.776902   -3.581039
    134          6           0        0.496534   -4.039959   -2.489535
    135          6           0       -0.022945   -2.860286   -3.026374
    136          1           0        0.347350   -2.503517   -3.985685
    137          6           0       -1.018191   -2.133770   -2.373195
    138          1           0       -1.421187   -1.225955   -2.814619
    139          6           0       -1.514317   -2.580055   -1.145731
    140          8           0       -2.469705   -1.846344   -0.513529
    141          1           0       -2.646370   -2.250826    0.375980
    142          6           0       -1.018323   -3.770592   -0.602995
    143          1           0       -1.415814   -4.137292    0.338325
    144          6           0       -0.026608   -4.480560   -1.268977
    145          1           0        0.337197   -5.398384   -0.814581
    146          1           0        5.928907    2.838444   -2.932276
    147          1           0        5.984309    1.070868   -3.030615
    148          1           0        7.470152    2.020903   -3.249321
    149          1           0        5.086562   -3.500812   -0.427404
    150          1           0        4.080455   -4.760553    0.336065
    151          1           0        5.461295   -4.064526    1.221839
    152          1           0       -0.887857    5.454688   -0.379169
    153          1           0        0.242116    6.375704   -1.395282
    154          1           0       -0.104595    6.905291    0.258963
    155          1           0       -4.165372    6.523523    3.178240
    156          1           0       -5.124786    6.897280    1.739895
    157          1           0       -3.961384    8.083256    2.358180
    158          6           0       -5.797162   -1.862749   -0.093240
    159          1           0       -4.782501   -2.430632   -1.895927
    160          1           0       -6.554415   -2.251645    0.599167
    161          1           0       -6.170474   -0.904461   -0.479075
    162          1           0       -4.882703   -1.683084    0.482004
    163          1           0        2.461449   -5.752652   -1.438531
    164          1           0        3.250402   -4.270269   -1.966035
    165          1           0        3.500810   -5.773321   -2.875084
    166          1           0       -6.304071   -4.174798    4.270933
    167          1           0       -4.834307   -4.942850    3.644217
    168          1           0       -5.449296   -3.467414    2.891695
    169          1           0        5.528585   -1.283523   -1.970566
    170          1           0        5.153368   -1.416391   -3.698146
    171          1           0        5.195309   -2.872846   -2.690468
 ---------------------------------------------------------------------

 SCF Done:  E(RPBE1PBE) =  -3820.29886213     A.U. after   18 cycles

 The electronic state is 1-A.
 Alpha  occ. eigenvalues --  -89.01386 -19.25956 -19.25064 -19.21057 -19.18527
 Alpha  occ. eigenvalues --  -19.16427 -19.15662 -14.44007 -14.43522 -14.41974
 Alpha  occ. eigenvalues --  -14.40841 -14.40361 -14.35752 -10.33659 -10.33620
 Alpha  occ. eigenvalues --  -10.32155 -10.31592 -10.30317 -10.30279 -10.30174
 Alpha  occ. eigenvalues --  -10.29959 -10.28814 -10.28427 -10.27653 -10.27171
 Alpha  occ. eigenvalues --  -10.26039 -10.25871 -10.25066 -10.24737 -10.24733
 Alpha  occ. eigenvalues --  -10.24727 -10.24675 -10.24389 -10.24192 -10.24143
 Alpha  occ. eigenvalues --  -10.24091 -10.24043 -10.24033 -10.24002 -10.23959
 Alpha  occ. eigenvalues --  -10.23823 -10.23784 -10.23742 -10.23731 -10.23713
 Alpha  occ. eigenvalues --  -10.23675 -10.23668 -10.23572 -10.23443 -10.23334
 Alpha  occ. eigenvalues --  -10.23316 -10.23293 -10.23245 -10.23136 -10.22891
 Alpha  occ. eigenvalues --  -10.22823 -10.22819 -10.22621 -10.22601 -10.22570
 Alpha  occ. eigenvalues --  -10.22549 -10.22515 -10.22160 -10.22116 -10.22063
 Alpha  occ. eigenvalues --  -10.21985 -10.21708 -10.21685 -10.21635 -10.21615
 Alpha  occ. eigenvalues --  -10.21352 -10.21292 -10.21098 -10.21057 -10.21027
 Alpha  occ. eigenvalues --  -10.20989 -10.20613 -10.20455 -10.20231 -10.20072
 Alpha  occ. eigenvalues --  -10.19391  -7.99757  -5.93524  -5.93170  -5.92518
 Alpha  occ. eigenvalues --   -1.11442  -1.10956  -1.08338  -1.07966  -1.06908
 Alpha  occ. eigenvalues --   -1.05581  -1.03971  -1.01509  -0.99918  -0.95724
 Alpha  occ. eigenvalues --   -0.94119  -0.91763  -0.91577  -0.89756  -0.89582
 Alpha  occ. eigenvalues --   -0.89473  -0.88959  -0.87476  -0.85860  -0.84415
 Alpha  occ. eigenvalues --   -0.83195  -0.83005  -0.82105  -0.81719  -0.81700
 Alpha  occ. eigenvalues --   -0.81340  -0.80898  -0.80051  -0.79970  -0.79561
 Alpha  occ. eigenvalues --   -0.78695  -0.78448  -0.77585  -0.77259  -0.76405
 Alpha  occ. eigenvalues --   -0.75951  -0.75558  -0.75186  -0.75008  -0.74992
 Alpha  occ. eigenvalues --   -0.74748  -0.73815  -0.73276  -0.73183  -0.72795
 Alpha  occ. eigenvalues --   -0.71608  -0.69670  -0.68678  -0.67110  -0.66765
 Alpha  occ. eigenvalues --   -0.66589  -0.66448  -0.65583  -0.65142  -0.64836
 Alpha  occ. eigenvalues --   -0.64669  -0.64629  -0.64312  -0.64003  -0.63823
 Alpha  occ. eigenvalues --   -0.63568  -0.63261  -0.63076  -0.62725  -0.61763
 Alpha  occ. eigenvalues --   -0.61286  -0.61089  -0.60996  -0.60499  -0.60193
 Alpha  occ. eigenvalues --   -0.59631  -0.59298  -0.59050  -0.58209  -0.57695
 Alpha  occ. eigenvalues --   -0.57664  -0.56788  -0.56065  -0.55972  -0.55451
 Alpha  occ. eigenvalues --   -0.55354  -0.55251  -0.53096  -0.53040  -0.52317
 Alpha  occ. eigenvalues --   -0.51846  -0.51760  -0.51542  -0.51108  -0.50278
 Alpha  occ. eigenvalues --   -0.49940  -0.49710  -0.49557  -0.49490  -0.49138
 Alpha  occ. eigenvalues --   -0.48761  -0.48449  -0.48316  -0.48133  -0.48022
 Alpha  occ. eigenvalues --   -0.47702  -0.47658  -0.47381  -0.47325  -0.47198
 Alpha  occ. eigenvalues --   -0.46826  -0.46691  -0.46496  -0.46420  -0.46271
 Alpha  occ. eigenvalues --   -0.46033  -0.45901  -0.45627  -0.45556  -0.45328
 Alpha  occ. eigenvalues --   -0.45281  -0.45242  -0.44997  -0.44882  -0.44721
 Alpha  occ. eigenvalues --   -0.44597  -0.44465  -0.44403  -0.44161  -0.44097
 Alpha  occ. eigenvalues --   -0.43905  -0.43770  -0.43629  -0.43508  -0.43313
 Alpha  occ. eigenvalues --   -0.43239  -0.43124  -0.43074  -0.43014  -0.42717
 Alpha  occ. eigenvalues --   -0.42477  -0.42389  -0.42177  -0.41772  -0.41632
 Alpha  occ. eigenvalues --   -0.41424  -0.41335  -0.41052  -0.41016  -0.40895
 Alpha  occ. eigenvalues --   -0.40681  -0.40598  -0.40425  -0.40110  -0.39801
 Alpha  occ. eigenvalues --   -0.39524  -0.39477  -0.39358  -0.39100  -0.39047
 Alpha  occ. eigenvalues --   -0.38629  -0.38558  -0.38420  -0.38332  -0.38231
 Alpha  occ. eigenvalues --   -0.37827  -0.37547  -0.37480  -0.37311  -0.37150
 Alpha  occ. eigenvalues --   -0.37023  -0.36899  -0.36793  -0.36652  -0.36625
 Alpha  occ. eigenvalues --   -0.36505  -0.36250  -0.36019  -0.35911  -0.35731
 Alpha  occ. eigenvalues --   -0.35523  -0.35501  -0.35420  -0.35385  -0.35298
 Alpha  occ. eigenvalues --   -0.35249  -0.35000  -0.34761  -0.34734  -0.34692
 Alpha  occ. eigenvalues --   -0.34210  -0.34111  -0.34041  -0.33221  -0.32946
 Alpha  occ. eigenvalues --   -0.32724  -0.32519  -0.32387  -0.32296  -0.31970
 Alpha  occ. eigenvalues --   -0.30026  -0.29768  -0.29483  -0.28976  -0.28690
 Alpha  occ. eigenvalues --   -0.28341  -0.28264  -0.28038  -0.27962  -0.27604
 Alpha  occ. eigenvalues --   -0.27087  -0.26640  -0.26529  -0.26032  -0.25954
 Alpha  occ. eigenvalues --   -0.25900  -0.24678  -0.24622  -0.23737  -0.22983
 Alpha  occ. eigenvalues --   -0.22180  -0.20184
 Alpha virt. eigenvalues --   -0.07518  -0.03373  -0.02925  -0.02684  -0.02311
 Alpha virt. eigenvalues --   -0.02237  -0.01770  -0.01689  -0.01214  -0.00949
 Alpha virt. eigenvalues --   -0.00867  -0.00575  -0.00470  -0.00307  -0.00074

 Mulliken charges:
               1
     1  C   -0.588648
     2  C   -1.059033
     3  H   -0.100293
     4  C   -0.347497
     5  H    0.183901
     6  H    0.176735
     7  N    0.556290
     8  H   -0.035927
     9  C   -0.115098
    10  C    0.148045
    11  C    0.187179
    12  C    0.048385
    13  C   -0.293854
    14  H   -0.052835
    15  H    0.304097
    16  C   -0.391796
    17  H    0.252568
    18  C   -0.281187
    19  H    0.227151
    20  C   -0.667610
    21  H    0.264217
    22  H    0.273248
    23  C   -0.159293
    24  H   -0.007988
    25  H    0.301300
    26  H    0.444431
    27  C    1.352374
    28  C   -1.165797
    29  H    0.219830
    30  H    0.201320
    31  H    0.069033
    32  C   -0.089822
    33  H    0.198761
    34  H    0.148940
    35  C   -0.758198
    36  H    0.197681
    37  H    0.192573
    38  H    0.183061
    39  C   -0.702273
    40  C   -0.566037
    41  H    0.177395
    42  H    0.247982
    43  C   -0.550751
    44  H    0.271866
    45  H    0.217603
    46  C   -0.594114
    47  O    0.062147
    48  N   -0.004042
    49  H    0.370591
    50  H    0.622531
    51  C   -1.091656
    52  C   -0.322717
    53  H    0.229200
    54  H    0.227041
    55  C    0.165914
    56  C   -1.057910
    57  H    0.302497
    58  C    0.384058
    59  H    0.230480
    60  C    0.018343
    61  O    0.044013
    62  H    0.230999
    63  C   -0.390296
    64  H    0.304035
    65  C   -0.131471
    66  H    0.312895
    67  C   -0.992288
    68  C   -0.369193
    69  H    0.011265
    70  H    0.267680
    71  C    0.675318
    72  C   -0.481059
    73  H    0.226889
    74  C   -0.456452
    75  H    0.254951
    76  C   -0.239799
    77  H    0.250926
    78  C   -0.165328
    79  H    0.435203
    80  C    0.353085
    81  H   -0.184053
    82  C   -0.916237
    83  C   -0.251227
    84  H    0.011109
    85  H    0.324576
    86  S    0.316677
    87  C   -1.815243
    88  H    0.297109
    89  H    0.302876
    90  C    0.801325
    91  C   -0.571085
    92  C   -0.114061
    93  H    0.330841
    94  C   -0.125734
    95  C   -0.719893
    96  H    0.253624
    97  H    0.217577
    98  H    0.185271
    99  C    0.022999
   100  H    0.310167
   101  C   -0.210585
   102  N    1.080222
   103  C   -0.605235
   104  C    0.481387
   105  O   -0.081283
   106  N    0.017047
   107  H    0.456870
   108  C   -0.258509
   109  O   -0.274212
   110  N    0.053575
   111  C   -0.183942
   112  N    0.573191
   113  C   -0.291926
   114  C   -1.141309
   115  C    0.095755
   116  H    0.382477
   117  H    0.180714
   118  C    0.101295
   119  C    0.314301
   120  H    0.045700
   121  C   -0.362801
   122  H    0.465974
   123  C   -0.622362
   124  O   -0.034294
   125  H    0.329466
   126  C   -0.329807
   127  H    0.242573
   128  C   -0.416366
   129  H    0.231539
   130  C   -0.557667
   131  C   -0.556205
   132  H    0.186700
   133  H    0.256909
   134  C    0.471688
   135  C   -0.568635
   136  H    0.251321
   137  C   -0.279131
   138  H    0.200061
   139  C   -0.273819
   140  O    0.336015
   141  H   -0.476150
   142  C    0.052348
   143  H    0.181508
   144  C   -0.568026
   145  H    0.291865
   146  H    0.199393
   147  H    0.173442
   148  H    0.226106
   149  H    0.189893
   150  H    0.270629
   151  H    0.214931
   152  H    0.106384
   153  H    0.220074
   154  H    0.215822
   155  H    0.193968
   156  H    0.191591
   157  H    0.201837
   158  C   -0.787209
   159  H   -0.030596
   160  H    0.245984
   161  H    0.196036
   162  H   -0.316444
   163  H    0.186326
   164  H    0.010585
   165  H    0.225511
   166  H    0.207333
   167  H    0.191871
   168  H    0.152771
   169  H    0.244379
   170  H    0.225348
   171  H    0.183410
 Sum of Mulliken charges =  -0.00000

 Dipole moment (field-independent basis, Debye):
    X=             -3.9197    Y=             18.5315    Z=             -5.5966  Tot=             19.7510
 Quadrupole moment (field-independent basis, Debye-Ang):
   XX=           -473.2343   YY=           -534.5015   ZZ=           -472.1614
   XY=             -9.2724   XZ=             -0.6968   YZ=             -0.7827

 Normal termination of Gaussian 16 at Sat Apr  2 18:40:16 2022.
