 Gaussian 16, Revision B.01,
 Gaussian 16:  ES64L-G16RevB.01 20-Dec-2017

 ----------------------------------------------------------------------
 #p PBE1PBE/6-311++G(d,p) scrf=(CPCM,solvent=water,Read) scf=(XQC,Tight
 )
 ----------------------------------------------------------------------

 ------------
 optimisation
 ------------
 Symbolic Z-matrix:
 Charge =  0 Multiplicity = 1

                         Standard orientation:
 ---------------------------------------------------------------------
 Center     Atomic      Atomic             Coordinates (Angstroms)
 Number     Number       Type             X           Y           Z
 ---------------------------------------------------------------------
      1          6           0       -0.357460   -0.952260    0.649048
      2          6           0       -0.133737   -2.141409    0.671164
      3          1           0        0.055687   -3.196275    0.702433
      4          6           0       -0.605892    0.496718    0.528800
      5          1           0       -1.377332    0.794035    1.246070
      6          1           0       -1.012016    0.688388   -0.471936
      7          7           0        0.549760    1.357426    0.724667
      8          1           0        1.318716    1.059347    0.126660
      9          6           0        0.992282    1.542338    2.106536
     10          6           0        2.369871    0.992778    2.420207
     11          6           0        2.894520   -0.250928    2.082465
     12          6           0        3.124785    1.916810    3.147153
     13          6           0        4.208428   -0.549925    2.447573
     14          1           0        2.288341   -0.979323    1.544220
     15          1           0        4.622215   -1.524317    2.204371
     16          6           0        4.988374    0.392673    3.124070
     17          1           0        6.015075    0.153871    3.386402
     18          6           0        4.446659    1.631093    3.486260
     19          1           0        5.046300    2.353476    4.034572
     20          6           0        2.290337    3.131450    3.484894
     21          1           0        1.927988    3.045483    4.517506
     22          1           0        2.846367    4.070865    3.411980
     23          6           0        1.129115    3.039863    2.477234
     24          1           0        1.392295    3.578442    1.559818
     25          1           0        0.189397    3.455896    2.854253
     26          1           0        0.255728    1.058502    2.764996
     27          6           0        6.947904   -1.644109    0.237982
     28          6           0        6.922224   -2.556097   -0.987438
     29          1           0        7.895721   -2.555679   -1.494647
     30          1           0        6.676819   -3.587551   -0.717637
     31          1           0        6.164662   -2.224263   -1.705980
     32          6           0        7.919714   -2.141969    1.313803
     33          1           0        8.940137   -2.141371    0.904206
     34          1           0        7.921089   -1.417620    2.139720
     35          6           0        7.581747   -3.527046    1.863854
     36          1           0        8.207381   -3.772908    2.726958
     37          1           0        6.533316   -3.572634    2.182091
     38          1           0        7.732831   -4.308709    1.113852
     39          6           0        6.134101    0.237130   -3.781505
     40          6           0        4.819637    0.928934   -3.429668
     41          1           0        4.922163    1.470285   -2.479653
     42          1           0        4.590393    1.688656   -4.184208
     43          6           0        3.641045   -0.050010   -3.363632
     44          1           0        2.689553    0.485721   -3.281178
     45          1           0        3.597481   -0.655677   -4.273447
     46          6           0        3.689890   -1.014146   -2.197024
     47          8           0        3.531470   -2.243496   -2.353898
     48          7           0        3.894016   -0.492682   -0.984520
     49          1           0        4.058812    0.493996   -0.806155
     50          1           0        3.888503   -1.111769   -0.179837
     51          6           0        2.603386    7.957258   -1.276505
     52          6           0        1.720801    6.952701   -0.527763
     53          1           0        1.419550    7.377481    0.437360
     54          1           0        0.800203    6.777430   -1.095666
     55          6           0        2.429801    5.637676   -0.304804
     56          6           0        3.379363    5.500108    0.712812
     57          1           0        3.575743    6.338914    1.377184
     58          6           0        4.086070    4.314671    0.890152
     59          1           0        4.827602    4.220966    1.679911
     60          6           0        3.832234    3.232388    0.048811
     61          8           0        4.518154    2.051524    0.162102
     62          1           0        4.825469    1.921248    1.078127
     63          6           0        2.884147    3.341616   -0.966175
     64          1           0        2.681152    2.486482   -1.606861
     65          6           0        2.197079    4.539942   -1.138226
     66          1           0        1.452184    4.616202   -1.927166
     67          6           0       -1.167166    5.292137    0.889819
     68          6           0       -2.016637    4.068818    0.533264
     69          1           0       -1.559731    3.174686    0.975927
     70          1           0       -3.010667    4.173920    0.979623
     71          6           0       -2.139531    3.885602   -0.958944
     72          6           0       -3.206300    4.450511   -1.665613
     73          1           0       -3.969059    5.005575   -1.122542
     74          6           0       -3.304972    4.307206   -3.049367
     75          1           0       -4.143394    4.749210   -3.580459
     76          6           0       -2.333933    3.590374   -3.747772
     77          1           0       -2.413945    3.468340   -4.823623
     78          6           0       -1.263341    3.027749   -3.054202
     79          1           0       -0.509476    2.452732   -3.584330
     80          6           0       -1.164315    3.179888   -1.671902
     81          1           0       -0.330068    2.741357   -1.125160
     82          6           0       -7.163622    0.256811    3.002505
     83          6           0       -7.381900    0.537671    1.521886
     84          1           0       -6.436599    0.830895    1.057053
     85          1           0       -8.106089    1.344439    1.373571
     86         16           0       -7.986081   -0.965193    0.682816
     87          6           0       -7.643365   -0.518570   -1.057967
     88          1           0       -8.159489    0.412783   -1.297534
     89          1           0       -8.110306   -1.313947   -1.645377
     90          6           0       -6.168217   -0.441877   -1.371121
     91          6           0       -5.447712   -1.631993   -1.394337
     92          6           0       -4.078928   -1.635136   -1.687673
     93          1           0       -5.970423   -2.558578   -1.182598
     94          6           0       -5.528817    0.799304   -1.621937
     95          6           0       -6.288476    2.103072   -1.635923
     96          1           0       -7.025140    2.124507   -2.446287
     97          1           0       -6.828648    2.276669   -0.699679
     98          1           0       -5.597101    2.935058   -1.787226
     99          6           0       -4.168372    0.793178   -1.884012
    100          1           0       -3.625429    1.717579   -2.069694
    101          6           0       -3.433996   -0.401941   -1.927927
    102          7           0       -2.087852   -0.337814   -2.188324
    103          6           0       -1.426466   -1.441513   -2.239366
    104          6           0        0.057760   -1.372967   -2.411751
    105          8           0        0.685900   -0.330801   -2.353232
    106          7           0        0.630574   -2.591159   -2.642332
    107          1           0        1.647567   -2.610389   -2.770218
    108          6           0       -0.033794   -3.831055   -2.675564
    109          8           0        0.587894   -4.817290   -3.025527
    110          7           0       -1.358032   -3.889655   -2.293639
    111          6           0       -2.011055   -2.775731   -2.102812
    112          7           0       -3.336677   -2.805031   -1.772020
    113          6           0       -3.996880   -4.089042   -1.533528
    114          6           0       -4.654081   -2.970415    2.189489
    115          6           0       -3.271502   -2.350730    1.970398
    116          1           0       -2.517846   -2.899144    2.546899
    117          1           0       -2.980130   -2.454334    0.915896
    118          6           0       -3.216403   -0.892559    2.355809
    119          6           0       -3.910989    0.065997    1.609988
    120          1           0       -4.483278   -0.254869    0.741815
    121          6           0       -3.883733    1.415237    1.945055
    122          1           0       -4.416264    2.154101    1.351193
    123          6           0       -3.149960    1.834325    3.058478
    124          8           0       -3.159508    3.162788    3.362984
    125          1           0       -2.604614    3.318816    4.141953
    126          6           0       -2.443388    0.896348    3.812093
    127          1           0       -1.865447    1.219299    4.675112
    128          6           0       -2.482331   -0.451506    3.456992
    129          1           0       -1.920615   -1.170547    4.048037
    130          6           0       -1.834386   -5.797743    1.014976
    131          6           0       -0.570046   -6.331481    1.699033
    132          1           0       -0.699919   -6.315673    2.786547
    133          1           0       -0.425320   -7.380943    1.414616
    134          6           0        0.654507   -5.527022    1.326258
    135          6           0        1.390461   -4.811089    2.274742
    136          1           0        1.099705   -4.858208    3.321456
    137          6           0        2.477836   -4.019243    1.908359
    138          1           0        3.033647   -3.453836    2.650811
    139          6           0        2.848524   -3.935148    0.566210
    140          8           0        3.908059   -3.150357    0.219180
    141          1           0        3.904407   -3.043009   -0.763928
    142          6           0        2.139479   -4.658632   -0.395207
    143          1           0        2.428798   -4.605303   -1.440861
    144          6           0        1.055691   -5.439660   -0.012131
    145          1           0        0.508684   -5.976060   -0.783680
    146          1           0       -6.822603    1.166596    3.504927
    147          1           0       -6.399121   -0.514045    3.138573
    148          1           0       -8.087350   -0.075947    3.485294
    149          1           0       -4.380558   -4.112227   -0.509482
    150          1           0       -3.263605   -4.876655   -1.676495
    151          1           0       -4.820322   -4.214062   -2.239992
    152          1           0       -0.142799    5.164293    0.524197
    153          1           0       -1.127126    5.435703    1.974594
    154          1           0       -1.580317    6.200319    0.437229
    155          1           0        2.891196    7.560734   -2.255034
    156          1           0        3.520480    8.161034   -0.714657
    157          1           0        2.078862    8.904800   -1.429951
    158          6           0        7.269157   -0.201412   -0.149311
    159          1           0        5.942191   -1.661710    0.673537
    160          1           0        8.262038   -0.135228   -0.612049
    161          1           0        7.263869    0.452274    0.731368
    162          1           0        6.536227    0.192256   -0.861277
    163          1           0       -1.724675   -5.822918   -0.074063
    164          1           0       -2.017626   -4.755954    1.300946
    165          1           0       -2.714297   -6.389536    1.286216
    166          1           0        6.963495    0.949728   -3.804424
    167          1           0        6.066605   -0.240363   -4.764397
    168          1           0        6.383438   -0.539411   -3.051098
    169          1           0       -5.411797   -2.467503    1.576271
    170          1           0       -4.958889   -2.879459    3.237394
    171          1           0       -4.653004   -4.034943    1.929628
 ---------------------------------------------------------------------

 SCF Done:  E(RPBE1PBE) =  -3820.27123442     A.U. after   17 cycles

 The electronic state is 1-A.
 Alpha  occ. eigenvalues --  -89.02103 -19.24281 -19.24250 -19.22295 -19.19289
 Alpha  occ. eigenvalues --  -19.18710 -19.18133 -14.48126 -14.42764 -14.42507
 Alpha  occ. eigenvalues --  -14.39748 -14.38244 -14.36955 -10.36124 -10.35014
 Alpha  occ. eigenvalues --  -10.34340 -10.33647 -10.30766 -10.30258 -10.29454
 Alpha  occ. eigenvalues --  -10.29233 -10.28725 -10.28311 -10.26962 -10.26874
 Alpha  occ. eigenvalues --  -10.26798 -10.25940 -10.25672 -10.25478 -10.25457
 Alpha  occ. eigenvalues --  -10.25324 -10.24669 -10.23809 -10.23649 -10.23575
 Alpha  occ. eigenvalues --  -10.23366 -10.23331 -10.23273 -10.23272 -10.23224
 Alpha  occ. eigenvalues --  -10.23219 -10.23210 -10.23205 -10.23142 -10.23114
 Alpha  occ. eigenvalues --  -10.23076 -10.23044 -10.22997 -10.22963 -10.22802
 Alpha  occ. eigenvalues --  -10.22732 -10.22727 -10.22606 -10.22521 -10.22475
 Alpha  occ. eigenvalues --  -10.22458 -10.22449 -10.22423 -10.22406 -10.22297
 Alpha  occ. eigenvalues --  -10.22294 -10.22214 -10.22183 -10.22176 -10.22006
 Alpha  occ. eigenvalues --  -10.21883 -10.21807 -10.21804 -10.21358 -10.21285
 Alpha  occ. eigenvalues --  -10.21186 -10.21101 -10.21006 -10.20972 -10.20742
 Alpha  occ. eigenvalues --  -10.20685 -10.20627 -10.20466 -10.20014 -10.19786
 Alpha  occ. eigenvalues --  -10.19608  -8.00471  -5.94243  -5.93882  -5.93225
 Alpha  occ. eigenvalues --   -1.10689  -1.10178  -1.09959  -1.08777  -1.08460
 Alpha  occ. eigenvalues --   -1.07404  -1.06880  -0.99731  -0.98236  -0.94525
 Alpha  occ. eigenvalues --   -0.94071  -0.93719  -0.91152  -0.89919  -0.89078
 Alpha  occ. eigenvalues --   -0.89025  -0.88547  -0.88291  -0.85169  -0.83825
 Alpha  occ. eigenvalues --   -0.82903  -0.82348  -0.81980  -0.81425  -0.81226
 Alpha  occ. eigenvalues --   -0.81206  -0.80848  -0.80587  -0.79155  -0.78711
 Alpha  occ. eigenvalues --   -0.78038  -0.77919  -0.77766  -0.77148  -0.77079
 Alpha  occ. eigenvalues --   -0.76796  -0.74844  -0.74595  -0.74567  -0.74531
 Alpha  occ. eigenvalues --   -0.74424  -0.74149  -0.73838  -0.72897  -0.72753
 Alpha  occ. eigenvalues --   -0.72162  -0.69589  -0.68759  -0.68109  -0.67822
 Alpha  occ. eigenvalues --   -0.66272  -0.65885  -0.65243  -0.65136  -0.64903
 Alpha  occ. eigenvalues --   -0.64643  -0.64564  -0.64147  -0.63897  -0.63727
 Alpha  occ. eigenvalues --   -0.63625  -0.63353  -0.62596  -0.62362  -0.60894
 Alpha  occ. eigenvalues --   -0.60651  -0.60435  -0.60261  -0.60144  -0.59953
 Alpha  occ. eigenvalues --   -0.59848  -0.59676  -0.59157  -0.58350  -0.57098
 Alpha  occ. eigenvalues --   -0.57047  -0.56820  -0.56381  -0.55292  -0.54951
 Alpha  occ. eigenvalues --   -0.54534  -0.53692  -0.53319  -0.52640  -0.52535
 Alpha  occ. eigenvalues --   -0.51254  -0.51033  -0.51006  -0.50905  -0.50065
 Alpha  occ. eigenvalues --   -0.49807  -0.49683  -0.49470  -0.49265  -0.49080
 Alpha  occ. eigenvalues --   -0.48786  -0.48617  -0.48421  -0.48388  -0.48061
 Alpha  occ. eigenvalues --   -0.47909  -0.47628  -0.47539  -0.47448  -0.47251
 Alpha  occ. eigenvalues --   -0.46758  -0.46653  -0.46484  -0.46310  -0.46225
 Alpha  occ. eigenvalues --   -0.46132  -0.45944  -0.45533  -0.45418  -0.45184
 Alpha  occ. eigenvalues --   -0.45170  -0.45119  -0.44914  -0.44804  -0.44550
 Alpha  occ. eigenvalues --   -0.44411  -0.44267  -0.44151  -0.43985  -0.43853
 Alpha  occ. eigenvalues --   -0.43762  -0.43617  -0.43530  -0.43354  -0.43210
 Alpha  occ. eigenvalues --   -0.43080  -0.42878  -0.42770  -0.42705  -0.42590
 Alpha  occ. eigenvalues --   -0.42328  -0.42224  -0.42133  -0.42071  -0.41985
 Alpha  occ. eigenvalues --   -0.41822  -0.41798  -0.41462  -0.41215  -0.40768
 Alpha  occ. eigenvalues --   -0.40599  -0.40421  -0.40118  -0.39921  -0.39609
 Alpha  occ. eigenvalues --   -0.39542  -0.39037  -0.39016  -0.38925  -0.38819
 Alpha  occ. eigenvalues --   -0.38744  -0.38728  -0.38510  -0.38388  -0.37987
 Alpha  occ. eigenvalues --   -0.37771  -0.37331  -0.36720  -0.36626  -0.36623
 Alpha  occ. eigenvalues --   -0.36479  -0.36337  -0.36274  -0.36128  -0.36074
 Alpha  occ. eigenvalues --   -0.35990  -0.35880  -0.35837  -0.35366  -0.35338
 Alpha  occ. eigenvalues --   -0.35154  -0.35086  -0.35080  -0.34990  -0.34789
 Alpha  occ. eigenvalues --   -0.34703  -0.34681  -0.34400  -0.34303  -0.33949
 Alpha  occ. eigenvalues --   -0.33873  -0.33761  -0.33683  -0.33590  -0.33463
 Alpha  occ. eigenvalues --   -0.33022  -0.32521  -0.32072  -0.31562  -0.31513
 Alpha  occ. eigenvalues --   -0.31219  -0.30458  -0.29679  -0.29305  -0.29105
 Alpha  occ. eigenvalues --   -0.28798  -0.28737  -0.28198  -0.28026  -0.27571
 Alpha  occ. eigenvalues --   -0.27368  -0.27196  -0.26466  -0.26411  -0.26235
 Alpha  occ. eigenvalues --   -0.25635  -0.24775  -0.24395  -0.24140  -0.23835
 Alpha  occ. eigenvalues --   -0.23371  -0.23024
 Alpha virt. eigenvalues --   -0.10872  -0.04345  -0.02644  -0.02544  -0.02361
 Alpha virt. eigenvalues --   -0.01850  -0.01162  -0.01129  -0.01023  -0.00763
 Alpha virt. eigenvalues --   -0.00675  -0.00415  -0.00244  -0.00125  -0.00034

 Mulliken charges:
               1
     1  C    0.181972
     2  C   -0.169500
     3  H    0.474431
     4  C   -0.793864
     5  H    0.186721
     6  H    0.146342
     7  N    1.105427
     8  H   -0.216511
     9  C   -0.531526
    10  C   -0.003114
    11  C    0.038102
    12  C   -0.018323
    13  C   -0.064900
    14  H    0.027064
    15  H    0.224191
    16  C   -0.368604
    17  H    0.289510
    18  C   -0.319434
    19  H    0.231830
    20  C   -0.951049
    21  H    0.240364
    22  H    0.279697
    23  C   -0.146552
    24  H    0.006088
    25  H    0.442753
    26  H    0.372297
    27  C    1.326901
    28  C   -0.926736
    29  H    0.232427
    30  H    0.175409
    31  H    0.220484
    32  C   -0.135297
    33  H    0.217569
    34  H    0.172386
    35  C   -0.767729
    36  H    0.208872
    37  H    0.180150
    38  H    0.178071
    39  C   -1.038807
    40  C   -0.027332
    41  H    0.184088
    42  H    0.285905
    43  C   -0.288833
    44  H    0.193345
    45  H    0.285927
    46  C   -0.714044
    47  O   -0.122091
    48  N    0.022985
    49  H    0.163562
    50  H   -0.117582
    51  C   -1.078733
    52  C   -0.181160
    53  H    0.240631
    54  H    0.247447
    55  C    0.971012
    56  C   -0.763301
    57  H    0.262000
    58  C   -0.203837
    59  H    0.239494
    60  C   -0.098553
    61  O    0.000202
    62  H    0.320618
    63  C   -0.381992
    64  H    0.140908
    65  C   -0.466185
    66  H    0.315571
    67  C   -1.140889
    68  C    0.108219
    69  H    0.059381
    70  H    0.321452
    71  C    0.162293
    72  C   -0.251535
    73  H    0.236213
    74  C   -0.660069
    75  H    0.250339
    76  C   -0.560343
    77  H    0.230912
    78  C    0.178988
    79  H    0.323517
    80  C    0.335610
    81  H   -0.080729
    82  C   -0.892641
    83  C   -0.166740
    84  H   -0.182756
    85  H    0.334550
    86  S    0.330839
    87  C   -1.858904
    88  H    0.289570
    89  H    0.307442
    90  C    0.921039
    91  C   -0.596137
    92  C   -0.381365
    93  H    0.342852
    94  C   -0.384987
    95  C   -0.715476
    96  H    0.275462
    97  H    0.217851
    98  H    0.205019
    99  C    0.204430
   100  H    0.386558
   101  C   -0.700205
   102  N    0.608242
   103  C   -0.576149
   104  C    0.160956
   105  O    0.042277
   106  N    0.093356
   107  H    0.537023
   108  C   -0.152727
   109  O   -0.197869
   110  N    0.033388
   111  C    0.022000
   112  N    0.599069
   113  C   -0.392584
   114  C   -1.099449
   115  C   -0.039659
   116  H    0.409457
   117  H   -0.440091
   118  C    0.129112
   119  C    0.481992
   120  H    0.052067
   121  C   -0.366606
   122  H    0.463591
   123  C   -0.717997
   124  O   -0.015198
   125  H    0.293036
   126  C   -0.306000
   127  H    0.246557
   128  C   -0.197391
   129  H    0.239081
   130  C   -0.225800
   131  C   -1.079974
   132  H    0.217311
   133  H    0.243970
   134  C    0.528511
   135  C   -0.569300
   136  H    0.245278
   137  C    0.087184
   138  H    0.308326
   139  C   -0.593633
   140  O    0.065565
   141  H    0.296936
   142  C   -0.028508
   143  H    0.248260
   144  C   -0.343392
   145  H    0.308666
   146  H    0.199165
   147  H    0.179881
   148  H    0.224555
   149  H    0.218252
   150  H    0.318094
   151  H    0.240053
   152  H   -0.073125
   153  H    0.191925
   154  H    0.226913
   155  H    0.189701
   156  H    0.190831
   157  H    0.194019
   158  C   -0.883105
   159  H   -0.773623
   160  H    0.212891
   161  H    0.190817
   162  H    0.173644
   163  H    0.138323
   164  H   -0.013918
   165  H    0.227029
   166  H    0.220597
   167  H    0.183713
   168  H    0.119357
   169  H    0.300072
   170  H    0.226560
   171  H    0.171569
 Sum of Mulliken charges =  -0.00000

 Dipole moment (field-independent basis, Debye):
    X=             -8.1420    Y=              9.1605    Z=              5.7910  Tot=             13.5551
 Quadrupole moment (field-independent basis, Debye-Ang):
   XX=           -465.3430   YY=           -515.9010   ZZ=           -483.7211
   XY=             26.7824   XZ=             29.4829   YZ=             -3.2967

 Normal termination of Gaussian 16 at Fri Mar 25 23:36:35 2022.
