 Gaussian 16, Revision B.01,
 Gaussian 16:  ES64L-G16RevB.01 20-Dec-2017

 ----------------------------------------------------------------------
 #p PBE1PBE/6-311++G(d,p) scrf=(CPCM,solvent=water,Read) scf=(XQC,Tight
 )
 ----------------------------------------------------------------------

 ------------
 optimisation
 ------------
 Symbolic Z-matrix:
 Charge =  0 Multiplicity = 1

                         Standard orientation:
 ---------------------------------------------------------------------
 Center     Atomic      Atomic             Coordinates (Angstroms)
 Number     Number       Type             X           Y           Z
 ---------------------------------------------------------------------
      1          6           0        0.177946   -0.087873    0.107110
      2          6           0        1.491099    0.137628    0.492226
      3          1           0        1.978133    1.049269    0.158353
      4          6           0       -0.365038    0.795747   -0.818165
      5          1           0        0.235028    1.618681   -1.211421
      6          1           0       -0.408977   -0.914692    0.482273
      7          7           0       -1.589115    0.704878   -1.293358
      8          1           0       -2.178424   -0.060192   -0.947982
      9          6           0       -2.133096    1.625704   -2.282892
     10          6           0       -3.591610    1.357389   -2.568992
     11          6           0       -4.245332    0.131859   -2.652469
     12          6           0       -4.273507    2.560479   -2.750390
     13          6           0       -5.618631    0.125625   -2.908963
     14          1           0       -3.707947   -0.802598   -2.496779
     15          1           0       -6.150020   -0.820443   -2.968702
     16          6           0       -6.305262    1.327244   -3.104503
     17          1           0       -7.371455    1.308078   -3.307584
     18          6           0       -5.635685    2.550319   -3.034247
     19          1           0       -6.178855    3.481293   -3.171335
     20          6           0       -3.341255    3.735447   -2.557000
     21          1           0       -3.049616    4.157570   -3.526928
     22          1           0       -3.796180    4.540536   -1.971453
     23          6           0       -2.130107    3.104891   -1.836134
     24          1           0       -2.288139    3.129730   -0.750899
     25          1           0       -1.186001    3.612118   -2.058996
     26          1           0       -1.551539    1.508098   -3.208896
     27          6           0       -5.298821   -3.406263   -1.369438
     28          6           0       -4.488421   -4.651009   -1.004211
     29          1           0       -5.126093   -5.382058   -0.490809
     30          1           0       -4.059327   -5.135407   -1.886464
     31          1           0       -3.666090   -4.392343   -0.329620
     32          6           0       -6.534633   -3.750834   -2.208576
     33          1           0       -7.158860   -4.455499   -1.641027
     34          1           0       -7.142811   -2.844880   -2.338233
     35          6           0       -6.207681   -4.336286   -3.580548
     36          1           0       -7.115753   -4.501275   -4.167804
     37          1           0       -5.560143   -3.656369   -4.146295
     38          1           0       -5.689424   -5.295887   -3.495022
     39          6           0       -4.835572   -3.855150    4.833552
     40          6           0       -3.529997   -3.165826    5.224369
     41          1           0       -3.721123   -2.121437    5.499910
     42          1           0       -3.116529   -3.636160    6.122246
     43          6           0       -2.469918   -3.246516    4.122420
     44          1           0       -1.538452   -2.755975    4.431578
     45          1           0       -2.239964   -4.295486    3.909139
     46          6           0       -2.852064   -2.610700    2.800985
     47          8           0       -2.552422   -3.153036    1.724563
     48          7           0       -3.519212   -1.451831    2.850855
     49          1           0       -3.686940   -0.981365    3.727867
     50          1           0       -3.716043   -0.952284    1.986171
     51          6           0       -4.733110    5.689536    3.340169
     52          6           0       -3.789467    5.491635    2.149024
     53          1           0       -4.071215    6.175909    1.339425
     54          1           0       -2.765901    5.751517    2.443319
     55          6           0       -3.810798    4.068239    1.645446
     56          6           0       -4.827940    3.618485    0.798085
     57          1           0       -5.589869    4.315956    0.455905
     58          6           0       -4.889855    2.290449    0.386078
     59          1           0       -5.680760    1.947498   -0.277723
     60          6           0       -3.907871    1.399745    0.810922
     61          8           0       -3.905161    0.083108    0.415609
     62          1           0       -4.614495   -0.076716   -0.231263
     63          6           0       -2.876201    1.820422    1.647279
     64          1           0       -2.103413    1.115051    1.946851
     65          6           0       -2.843229    3.148835    2.062754
     66          1           0       -2.041285    3.481311    2.717464
     67          6           0       -1.105661    6.063302   -0.109252
     68          6           0        0.266249    5.436935    0.160091
     69          1           0        0.512835    4.745489   -0.653734
     70          1           0        1.031307    6.223365    0.143982
     71          6           0        0.324773    4.693184    1.474217
     72          6           0        0.161884    5.357898    2.694734
     73          1           0        0.014440    6.435921    2.702948
     74          6           0        0.192767    4.656052    3.898186
     75          1           0        0.068482    5.189156    4.836128
     76          6           0        0.382643    3.273274    3.902873
     77          1           0        0.399816    2.728139    4.841326
     78          6           0        0.543126    2.595803    2.695421
     79          1           0        0.664019    1.513696    2.686112
     80          6           0        0.518821    3.311042    1.498072
     81          1           0        0.637255    2.792588    0.551805
     82          6           0        8.019662    1.723955   -2.679302
     83          6           0        7.711163    1.748077   -1.187185
     84          1           0        6.632541    1.660719   -1.015590
     85          1           0        8.059089    2.682698   -0.736293
     86         16           0        8.547866    0.350760   -0.370502
     87          6           0        7.857247    0.499946    1.319605
     88          1           0        8.115496    1.482086    1.721002
     89          1           0        8.400942   -0.247820    1.903693
     90          6           0        6.373056    0.238035    1.377125
     91          6           0        5.932528   -1.075596    1.195870
     92          6           0        4.575784   -1.401368    1.170180
     93          1           0        6.677082   -1.847376    1.034717
     94          6           0        5.448959    1.272888    1.586480
     95          6           0        5.867674    2.700961    1.839774
     96          1           0        6.458256    2.790886    2.757622
     97          1           0        6.474645    3.100613    1.021151
     98          1           0        4.989165    3.341865    1.945341
     99          6           0        4.090064    0.946103    1.580488
    100          1           0        3.349011    1.722383    1.760268
    101          6           0        3.658942   -0.350637    1.345986
    102          7           0        2.280217   -0.668775    1.194191
    103          6           0        1.915951   -1.988440    1.574000
    104          6           0        0.686993   -2.269097    2.231473
    105          8           0       -0.126928   -1.441554    2.670924
    106          7           0        0.445949   -3.632971    2.339557
    107          1           0       -0.511152   -3.894947    2.552855
    108          6           0        1.247376   -4.650751    1.813722
    109          8           0        0.786623   -5.788890    1.743688
    110          7           0        2.517953   -4.321714    1.434526
    111          6           0        2.814157   -3.036664    1.322065
    112          7           0        4.116405   -2.701641    0.944963
    113          6           0        5.099226   -3.752777    0.726677
    114          6           0        4.797486   -0.564655   -2.132844
    115          6           0        3.283210   -0.603573   -2.346523
    116          1           0        3.045496   -1.265614   -3.187887
    117          1           0        2.803207   -1.065928   -1.469522
    118          6           0        2.664380    0.754007   -2.608108
    119          6           0        3.051891    1.892099   -1.887313
    120          1           0        3.837628    1.815456   -1.137787
    121          6           0        2.448392    3.129807   -2.089331
    122          1           0        2.756935    4.004038   -1.524035
    123          6           0        1.449845    3.263301   -3.056886
    124          8           0        0.898196    4.499507   -3.226341
    125          1           0        0.256928    4.472421   -3.953206
    126          6           0        1.060929    2.150528   -3.802975
    127          1           0        0.302179    2.253199   -4.575633
    128          6           0        1.662117    0.913731   -3.568122
    129          1           0        1.343183    0.054909   -4.153297
    130          6           0        3.441799   -4.398565   -2.107060
    131          6           0        2.270025   -4.435284   -3.091170
    132          1           0        2.531275   -3.889833   -4.005620
    133          1           0        2.086670   -5.474914   -3.391025
    134          6           0        1.012133   -3.842103   -2.499501
    135          6           0        0.353378   -2.772478   -3.108171
    136          1           0        0.735070   -2.379834   -4.048595
    137          6           0       -0.783509   -2.198507   -2.544119
    138          1           0       -1.277069   -1.358295   -3.025065
    139          6           0       -1.278911   -2.692081   -1.337472
    140          8           0       -2.357217   -2.066178   -0.774293
    141          1           0       -2.507674   -2.420795    0.139766
    142          6           0       -0.657033   -3.785761   -0.728873
    143          1           0       -1.053759   -4.187443    0.198492
    144          6           0        0.476044   -4.345315   -1.309087
    145          1           0        0.946527   -5.188594   -0.808628
    146          1           0        7.515265    2.555364   -3.179071
    147          1           0        7.675981    0.790437   -3.133528
    148          1           0        9.094132    1.817877   -2.860717
    149          1           0        5.703697   -3.513007   -0.152995
    150          1           0        4.566332   -4.684772    0.566159
    151          1           0        5.756590   -3.862920    1.597102
    152          1           0       -1.894826    5.305791   -0.048566
    153          1           0       -1.134161    6.515944   -1.105622
    154          1           0       -1.337016    6.842256    0.624585
    155          1           0       -4.447548    5.033240    4.168218
    156          1           0       -5.764138    5.448652    3.062063
    157          1           0       -4.707557    6.723404    3.696748
    158          6           0       -5.702683   -2.652844   -0.103218
    159          1           0       -4.650777   -2.747829   -1.966480
    160          1           0       -6.369969   -3.266270    0.515195
    161          1           0       -6.239420   -1.724843   -0.342556
    162          1           0       -4.823496   -2.410062    0.503129
    163          1           0        3.205168   -4.970447   -1.204557
    164          1           0        3.648760   -3.369827   -1.789599
    165          1           0        4.350893   -4.815299   -2.552147
    166          1           0       -5.565358   -3.809079    5.646317
    167          1           0       -4.658103   -4.909157    4.596622
    168          1           0       -5.282202   -3.383313    3.951908
    169          1           0        5.065622    0.018987   -1.245945
    170          1           0        5.301299   -0.123694   -2.999355
    171          1           0        5.192612   -1.574563   -1.980286
 ---------------------------------------------------------------------

 SCF Done:  E(RPBE1PBE) =  -3820.33957985     A.U. after   17 cycles

 The electronic state is 1-A.
 Alpha  occ. eigenvalues --  -89.01531 -19.25183 -19.25153 -19.21945 -19.18572
 Alpha  occ. eigenvalues --  -19.15644 -19.14881 -14.46891 -14.43438 -14.43324
 Alpha  occ. eigenvalues --  -14.40204 -14.40105 -14.35048 -10.33659 -10.32878
 Alpha  occ. eigenvalues --  -10.31703 -10.30945 -10.30320 -10.30012 -10.29459
 Alpha  occ. eigenvalues --  -10.29434 -10.28625 -10.28611 -10.28451 -10.27797
 Alpha  occ. eigenvalues --  -10.25999 -10.25307 -10.24920 -10.24776 -10.24762
 Alpha  occ. eigenvalues --  -10.24658 -10.24640 -10.24599 -10.24306 -10.24235
 Alpha  occ. eigenvalues --  -10.24215 -10.24212 -10.24179 -10.24116 -10.24060
 Alpha  occ. eigenvalues --  -10.24045 -10.24014 -10.23991 -10.23907 -10.23674
 Alpha  occ. eigenvalues --  -10.23637 -10.23421 -10.23352 -10.23329 -10.23298
 Alpha  occ. eigenvalues --  -10.23290 -10.23134 -10.23059 -10.23037 -10.22945
 Alpha  occ. eigenvalues --  -10.22934 -10.22897 -10.22868 -10.22786 -10.22732
 Alpha  occ. eigenvalues --  -10.22608 -10.22519 -10.22415 -10.22347 -10.22109
 Alpha  occ. eigenvalues --  -10.22039 -10.21912 -10.21750 -10.21654 -10.21505
 Alpha  occ. eigenvalues --  -10.21479 -10.21236 -10.21222 -10.21159 -10.21015
 Alpha  occ. eigenvalues --  -10.21014 -10.20868 -10.20320 -10.20265 -10.19976
 Alpha  occ. eigenvalues --  -10.19453  -7.99902  -5.93671  -5.93316  -5.92660
 Alpha  occ. eigenvalues --   -1.11028  -1.10832  -1.08329  -1.07465  -1.07284
 Alpha  occ. eigenvalues --   -1.05186  -1.04170  -1.00974  -1.00592  -0.95204
 Alpha  occ. eigenvalues --   -0.94112  -0.91713  -0.91266  -0.89895  -0.89441
 Alpha  occ. eigenvalues --   -0.89343  -0.89073  -0.87618  -0.85804  -0.84689
 Alpha  occ. eigenvalues --   -0.83506  -0.83163  -0.82228  -0.81721  -0.81641
 Alpha  occ. eigenvalues --   -0.81348  -0.81093  -0.80435  -0.80167  -0.80052
 Alpha  occ. eigenvalues --   -0.78878  -0.78496  -0.78038  -0.77510  -0.76527
 Alpha  occ. eigenvalues --   -0.76126  -0.75649  -0.75159  -0.75111  -0.74978
 Alpha  occ. eigenvalues --   -0.74683  -0.73800  -0.73460  -0.73302  -0.73057
 Alpha  occ. eigenvalues --   -0.71776  -0.69775  -0.69632  -0.67235  -0.67128
 Alpha  occ. eigenvalues --   -0.66744  -0.66221  -0.65815  -0.65665  -0.64856
 Alpha  occ. eigenvalues --   -0.64626  -0.64590  -0.64461  -0.64024  -0.63892
 Alpha  occ. eigenvalues --   -0.63755  -0.63258  -0.63061  -0.62726  -0.61677
 Alpha  occ. eigenvalues --   -0.61440  -0.61158  -0.60657  -0.60479  -0.60249
 Alpha  occ. eigenvalues --   -0.59921  -0.59640  -0.59168  -0.58220  -0.57846
 Alpha  occ. eigenvalues --   -0.57271  -0.56877  -0.56615  -0.56411  -0.55558
 Alpha  occ. eigenvalues --   -0.55326  -0.54783  -0.53294  -0.53129  -0.52642
 Alpha  occ. eigenvalues --   -0.51854  -0.51511  -0.51417  -0.50958  -0.50838
 Alpha  occ. eigenvalues --   -0.50112  -0.49830  -0.49626  -0.49291  -0.49201
 Alpha  occ. eigenvalues --   -0.49008  -0.48676  -0.48624  -0.48281  -0.48097
 Alpha  occ. eigenvalues --   -0.47829  -0.47778  -0.47675  -0.47418  -0.47237
 Alpha  occ. eigenvalues --   -0.47019  -0.46773  -0.46585  -0.46377  -0.46260
 Alpha  occ. eigenvalues --   -0.46156  -0.45883  -0.45612  -0.45478  -0.45437
 Alpha  occ. eigenvalues --   -0.45257  -0.45039  -0.45011  -0.44828  -0.44695
 Alpha  occ. eigenvalues --   -0.44678  -0.44405  -0.44224  -0.44164  -0.44109
 Alpha  occ. eigenvalues --   -0.43987  -0.43912  -0.43756  -0.43637  -0.43360
 Alpha  occ. eigenvalues --   -0.43264  -0.43151  -0.42946  -0.42849  -0.42600
 Alpha  occ. eigenvalues --   -0.42416  -0.42294  -0.42244  -0.42137  -0.41841
 Alpha  occ. eigenvalues --   -0.41714  -0.41612  -0.41134  -0.41117  -0.40981
 Alpha  occ. eigenvalues --   -0.40833  -0.40743  -0.40479  -0.40352  -0.39936
 Alpha  occ. eigenvalues --   -0.39698  -0.39537  -0.39380  -0.39031  -0.38856
 Alpha  occ. eigenvalues --   -0.38784  -0.38484  -0.38365  -0.38312  -0.38237
 Alpha  occ. eigenvalues --   -0.38055  -0.37716  -0.37612  -0.37371  -0.37340
 Alpha  occ. eigenvalues --   -0.37039  -0.36976  -0.36795  -0.36785  -0.36709
 Alpha  occ. eigenvalues --   -0.36675  -0.36554  -0.36090  -0.36057  -0.35783
 Alpha  occ. eigenvalues --   -0.35645  -0.35501  -0.35494  -0.35466  -0.35343
 Alpha  occ. eigenvalues --   -0.35191  -0.35133  -0.35048  -0.34843  -0.34578
 Alpha  occ. eigenvalues --   -0.34407  -0.34355  -0.34316  -0.34068  -0.33312
 Alpha  occ. eigenvalues --   -0.33090  -0.32663  -0.32643  -0.32408  -0.31954
 Alpha  occ. eigenvalues --   -0.30052  -0.29713  -0.29027  -0.28802  -0.28580
 Alpha  occ. eigenvalues --   -0.28357  -0.28175  -0.28042  -0.27794  -0.27423
 Alpha  occ. eigenvalues --   -0.27149  -0.26646  -0.26168  -0.26054  -0.25892
 Alpha  occ. eigenvalues --   -0.25253  -0.24686  -0.24181  -0.23797  -0.22780
 Alpha  occ. eigenvalues --   -0.22472  -0.19980
 Alpha virt. eigenvalues --   -0.06683  -0.03405  -0.02823  -0.02650  -0.02126
 Alpha virt. eigenvalues --   -0.02017  -0.01855  -0.01678  -0.01332  -0.01066
 Alpha virt. eigenvalues --   -0.00803  -0.00561  -0.00393  -0.00297  -0.00145

 Mulliken charges:
               1
     1  C    0.286996
     2  C   -0.577847
     3  H    0.021610
     4  C    0.103499
     5  H    0.219552
     6  H   -0.234269
     7  N    0.408337
     8  H   -0.138489
     9  C   -0.214938
    10  C    0.063934
    11  C   -0.006947
    12  C    0.158753
    13  C   -0.301957
    14  H    0.138181
    15  H    0.306449
    16  C   -0.463424
    17  H    0.246514
    18  C   -0.290241
    19  H    0.230132
    20  C   -0.941702
    21  H    0.261872
    22  H    0.274299
    23  C   -0.222175
    24  H    0.112700
    25  H    0.174647
    26  H    0.462693
    27  C    1.041078
    28  C   -1.024186
    29  H    0.209439
    30  H    0.210005
    31  H    0.122152
    32  C   -0.157831
    33  H    0.201327
    34  H    0.149312
    35  C   -0.734376
    36  H    0.200607
    37  H    0.189536
    38  H    0.178564
    39  C   -0.838200
    40  C   -0.488915
    41  H    0.209599
    42  H    0.239508
    43  C   -0.401391
    44  H    0.309750
    45  H    0.262870
    46  C   -0.568563
    47  O   -0.027672
    48  N    0.084517
    49  H    0.300380
    50  H    0.489613
    51  C   -1.079831
    52  C   -0.363980
    53  H    0.219835
    54  H    0.246553
    55  C    0.359864
    56  C   -1.044918
    57  H    0.286577
    58  C    0.133977
    59  H    0.237138
    60  C   -0.046991
    61  O    0.132369
    62  H    0.247915
    63  C   -0.357729
    64  H    0.198118
    65  C   -0.129642
    66  H    0.370196
    67  C   -1.009505
    68  C   -0.345762
    69  H    0.180997
    70  H    0.263932
    71  C    0.486834
    72  C   -0.416020
    73  H    0.229413
    74  C   -0.543556
    75  H    0.253138
    76  C   -0.179958
    77  H    0.251593
    78  C   -0.030853
    79  H    0.366858
    80  C    0.047350
    81  H   -0.063197
    82  C   -0.967915
    83  C   -0.151967
    84  H    0.120756
    85  H    0.296609
    86  S    0.112064
    87  C   -1.496522
    88  H    0.300065
    89  H    0.298772
    90  C    1.013695
    91  C   -0.614027
    92  C   -0.190947
    93  H    0.289792
    94  C   -0.104389
    95  C   -0.908734
    96  H    0.250818
    97  H    0.210336
    98  H    0.200892
    99  C   -0.072731
   100  H    0.263094
   101  C   -0.220019
   102  N    1.155407
   103  C   -0.740361
   104  C   -0.037987
   105  O   -0.055920
   106  N    0.134510
   107  H    0.388482
   108  C   -0.322534
   109  O   -0.298118
   110  N   -0.044135
   111  C   -0.215159
   112  N    0.747084
   113  C   -0.305293
   114  C   -1.090750
   115  C    0.038206
   116  H    0.395863
   117  H    0.056215
   118  C    0.169881
   119  C   -0.232098
   120  H    0.035518
   121  C   -0.195445
   122  H    0.321995
   123  C   -0.574758
   124  O   -0.062247
   125  H    0.328519
   126  C   -0.302997
   127  H    0.245019
   128  C   -0.206096
   129  H    0.206168
   130  C   -0.225921
   131  C   -0.943452
   132  H    0.179904
   133  H    0.257661
   134  C    0.688244
   135  C   -0.641011
   136  H    0.245757
   137  C   -0.232300
   138  H    0.220498
   139  C   -0.318000
   140  O    0.224725
   141  H   -0.634537
   142  C    0.069047
   143  H    0.279055
   144  C   -0.337021
   145  H    0.301222
   146  H    0.184426
   147  H    0.193202
   148  H    0.208164
   149  H    0.211363
   150  H    0.274610
   151  H    0.212973
   152  H    0.159765
   153  H    0.221920
   154  H    0.212301
   155  H    0.194152
   156  H    0.194277
   157  H    0.198216
   158  C   -0.669633
   159  H   -0.147601
   160  H    0.258008
   161  H    0.201356
   162  H   -0.129155
   163  H    0.144049
   164  H   -0.185280
   165  H    0.236184
   166  H    0.198950
   167  H    0.179676
   168  H    0.196148
   169  H    0.248568
   170  H    0.304768
   171  H    0.260095
 Sum of Mulliken charges =  -0.00000

 Dipole moment (field-independent basis, Debye):
    X=             -5.0645    Y=             19.1964    Z=             -4.6186  Tot=             20.3834
 Quadrupole moment (field-independent basis, Debye-Ang):
   XX=           -460.8083   YY=           -541.2158   ZZ=           -470.6007
   XY=              0.1031   XZ=              1.3267   YZ=              2.7308

 Normal termination of Gaussian 16 at Mon Apr  4 01:28:10 2022.
