 Gaussian 16, Revision B.01,
 Gaussian 16:  ES64L-G16RevB.01 20-Dec-2017

 ----------------------------------------------------------------------
 #p PBE1PBE/6-311++G(d,p) scrf=(CPCM,solvent=water,Read) scf=(XQC,Tight
 )
 ----------------------------------------------------------------------

 ------------
 optimisation
 ------------
 Symbolic Z-matrix:
 Charge =  0 Multiplicity = 1

                         Standard orientation:
 ---------------------------------------------------------------------
 Center     Atomic      Atomic             Coordinates (Angstroms)
 Number     Number       Type             X           Y           Z
 ---------------------------------------------------------------------
      1          6           0       -0.375750   -1.018110    0.511945
      2          6           0       -0.466361   -2.078648   -0.122323
      3          1           0       -0.429233   -3.143625   -0.272363
      4          6           0       -0.550223    0.364470    0.637274
      5          1           0       -1.408968    0.670809    1.238012
      6          1           0       -1.087674    0.460022   -0.654277
      7          7           0        0.512501    1.296970    0.683503
      8          1           0        1.313963    0.994340    0.133437
      9          6           0        0.881567    1.809543    2.003443
     10          6           0        2.186233    1.256690    2.545383
     11          6           0        2.670687   -0.044822    2.463343
     12          6           0        2.923929    2.264957    3.170413
     13          6           0        3.924199   -0.329619    3.009119
     14          1           0        2.082653   -0.826489    1.984036
     15          1           0        4.314933   -1.342382    2.972175
     16          6           0        4.678770    0.679906    3.613713
     17          1           0        5.655716    0.446084    4.026999
     18          6           0        4.181957    1.985503    3.700297
     19          1           0        4.769067    2.766023    4.177514
     20          6           0        2.150375    3.564432    3.161232
     21          1           0        1.657633    3.705377    4.132028
     22          1           0        2.781302    4.440215    2.984324
     23          6           0        1.112404    3.335917    2.045652
     24          1           0        1.531009    3.647350    1.081953
     25          1           0        0.180126    3.884492    2.206622
     26          1           0        0.065119    1.546749    2.689644
     27          6           0        6.331528   -2.272535    1.086638
     28          6           0        6.528807   -3.182622   -0.124539
     29          1           0        7.595449   -3.293476   -0.358221
     30          1           0        6.106440   -4.177173    0.043772
     31          1           0        6.029530   -2.766371   -1.007185
     32          6           0        6.934893   -2.861310    2.366919
     33          1           0        8.019555   -2.978039    2.230756
     34          1           0        6.806673   -2.130076    3.177850
     35          6           0        6.317574   -4.192737    2.791753
     36          1           0        6.684817   -4.502988    3.774406
     37          1           0        5.225336   -4.113324    2.848076
     38          1           0        6.553691   -4.992026    2.083427
     39          6           0        6.668723   -0.216952   -2.970137
     40          6           0        5.396956    0.617951   -2.837931
     41          1           0        5.363626    1.097507   -1.851937
     42          1           0        5.412718    1.432806   -3.569333
     43          6           0        4.132337   -0.214677   -3.074645
     44          1           0        3.244412    0.421853   -3.158281
     45          1           0        4.218802   -0.774929   -4.010200
     46          6           0        3.829350   -1.230164   -1.993430
     47          8           0        3.554873   -2.411878   -2.286095
     48          7           0        3.841757   -0.812909   -0.721794
     49          1           0        4.118076    0.121877   -0.431425
     50          1           0        3.591595   -1.479960    0.002177
     51          6           0        2.734664    6.963905   -2.742563
     52          6           0        1.976850    6.395401   -1.537995
     53          1           0        1.893561    7.162424   -0.759565
     54          1           0        0.953526    6.133494   -1.835146
     55          6           0        2.656577    5.171219   -0.973016
     56          6           0        3.546522    5.254695    0.101224
     57          1           0        3.728218    6.218701    0.570913
     58          6           0        4.212721    4.128466    0.581553
     59          1           0        4.909793    4.206804    1.412339
     60          6           0        3.970236    2.887786   -0.003276
     61          8           0        4.607044    1.747632    0.415150
     62          1           0        4.826050    1.802924    1.363242
     63          6           0        3.082583    2.778074   -1.074038
     64          1           0        2.876012    1.802425   -1.507990
     65          6           0        2.447081    3.916744   -1.555356
     66          1           0        1.754989    3.828299   -2.388746
     67          6           0       -0.759387    6.254627    0.769940
     68          6           0       -1.945814    5.306384    0.568512
     69          1           0       -1.918513    4.518843    1.333651
     70          1           0       -2.884369    5.852400    0.715896
     71          6           0       -1.941151    4.666981   -0.800579
     72          6           0       -2.911707    4.977498   -1.756632
     73          1           0       -3.690068    5.697345   -1.512675
     74          6           0       -2.901544    4.365003   -3.010359
     75          1           0       -3.669807    4.612729   -3.737086
     76          6           0       -1.915023    3.433685   -3.325777
     77          1           0       -1.915202    2.944980   -4.295382
     78          6           0       -0.936375    3.120279   -2.382207
     79          1           0       -0.190399    2.358669   -2.595347
     80          6           0       -0.949387    3.736314   -1.133113
     81          1           0       -0.200337    3.453635   -0.396178
     82          6           0       -7.076404   -0.198827    3.284909
     83          6           0       -7.175882    0.521643    1.947161
     84          1           0       -6.186052    0.864038    1.633823
     85          1           0       -7.835301    1.392353    2.014162
     86         16           0       -7.814129   -0.610766    0.668119
     87          6           0       -7.308716    0.295040   -0.842080
     88          1           0       -7.708221    1.310470   -0.797033
     89          1           0       -7.822253   -0.221869   -1.657377
     90          6           0       -5.817473    0.284302   -1.073923
     91          6           0       -5.229209   -0.911906   -1.483867
     92          6           0       -3.854695   -1.006114   -1.716240
     93          1           0       -5.867006   -1.778897   -1.617898
     94          6           0       -5.020857    1.430353   -0.878921
     95          6           0       -5.603244    2.768715   -0.491767
     96          1           0       -6.182578    3.199768   -1.316558
     97          1           0       -6.270176    2.702039    0.373054
     98          1           0       -4.801401    3.470973   -0.250127
     99          6           0       -3.649983    1.322950   -1.093606
    100          1           0       -3.005967    2.186325   -0.945800
    101          6           0       -3.054927    0.129762   -1.503985
    102          7           0       -1.668419    0.106584   -1.733754
    103          6           0       -1.138067   -1.076296   -2.066348
    104          6           0        0.293284   -1.067010   -2.453775
    105          8           0        1.025729   -0.109361   -2.242637
    106          7           0        0.722657   -2.239975   -3.011451
    107          1           0        1.728685   -2.353528   -3.152014
    108          6           0       -0.077106   -3.360189   -3.299382
    109          8           0        0.449461   -4.334888   -3.808439
    110          7           0       -1.420334   -3.315023   -3.001903
    111          6           0       -1.929762   -2.244534   -2.447609
    112          7           0       -3.268378   -2.183206   -2.203612
    113          6           0       -4.130169   -3.313322   -2.541642
    114          6           0       -4.597467   -3.377983    1.861915
    115          6           0       -3.229634   -2.749391    1.585894
    116          1           0       -2.426527   -3.449622    1.849475
    117          1           0       -3.130135   -2.563928    0.507721
    118          6           0       -3.020158   -1.443233    2.312146
    119          6           0       -3.763246   -0.315897    1.947183
    120          1           0       -4.490711   -0.406146    1.141895
    121          6           0       -3.574361    0.915642    2.565995
    122          1           0       -4.132207    1.796970    2.259111
    123          6           0       -2.617303    1.038340    3.575712
    124          8           0       -2.427858    2.275769    4.118661
    125          1           0       -1.762455    2.219888    4.821026
    126          6           0       -1.876201   -0.077640    3.967486
    127          1           0       -1.128028    0.016173    4.751359
    128          6           0       -2.081629   -1.302226    3.335019
    129          1           0       -1.478390   -2.158178    3.628415
    130          6           0       -2.670276   -5.651694   -0.511095
    131          6           0       -1.672072   -6.226518    0.497104
    132          1           0       -2.067078   -6.110773    1.513328
    133          1           0       -1.566419   -7.305395    0.326497
    134          6           0       -0.319271   -5.554719    0.414749
    135          6           0        0.297010   -5.009480    1.545919
    136          1           0       -0.197878   -5.089847    2.511450
    137          6           0        1.521348   -4.349900    1.464368
    138          1           0        1.984952   -3.913006    2.344046
    139          6           0        2.157090   -4.223153    0.228925
    140          8           0        3.344629   -3.561699    0.165376
    141          1           0        3.536249   -3.362343   -0.785010
    142          6           0        1.567797   -4.774316   -0.911610
    143          1           0        2.052838   -4.673108   -1.878655
    144          6           0        0.344144   -5.428468   -0.811932
    145          1           0       -0.100763   -5.821985   -1.722231
    146          1           0       -6.721050    0.493192    4.053788
    147          1           0       -6.369686   -1.031806    3.222328
    148          1           0       -8.048625   -0.589617    3.599676
    149          1           0       -4.653796   -3.657862   -1.645167
    150          1           0       -3.504526   -4.110463   -2.931586
    151          1           0       -4.859543   -3.006094   -3.295714
    152          1           0        0.189796    5.726918    0.621220
    153          1           0       -0.760175    6.678745    1.778822
    154          1           0       -0.798413    7.077768    0.049111
    155          1           0        2.807991    6.216989   -3.539329
    156          1           0        3.751704    7.251158   -2.457687
    157          1           0        2.228408    7.845655   -3.145916
    158          6           0        6.899968   -0.878608    0.823755
    159          1           0        5.249387   -2.183351    1.247180
    160          1           0        7.981621   -0.931953    0.646755
    161          1           0        6.731546   -0.214853    1.680323
    162          1           0        6.436293   -0.415739   -0.053411
    163          1           0       -2.343449   -5.824517   -1.540772
    164          1           0       -2.760816   -4.567484   -0.379165
    165          1           0       -3.661294   -6.100571   -0.388888
    166          1           0        7.560345    0.384058   -2.770212
    167          1           0        6.755425   -0.631440   -3.979728
    168          1           0        6.668885   -1.056084   -2.266007
    169          1           0       -5.403068   -2.712488    1.529938
    170          1           0       -4.733034   -3.566361    2.931792
    171          1           0       -4.704354   -4.329269    1.329751
 ---------------------------------------------------------------------

 SCF Done:  E(RPBE1PBE) =  -3820.22517811     A.U. after   17 cycles

 The electronic state is 1-A.
 Alpha  occ. eigenvalues --  -89.01718 -19.24542 -19.24420 -19.22018 -19.18893
 Alpha  occ. eigenvalues --  -19.18750 -19.17445 -14.46392 -14.42522 -14.42333
 Alpha  occ. eigenvalues --  -14.39918 -14.39090 -14.37542 -10.35556 -10.34683
 Alpha  occ. eigenvalues --  -10.34005 -10.33738 -10.30261 -10.29574 -10.29435
 Alpha  occ. eigenvalues --  -10.29352 -10.28245 -10.28071 -10.27585 -10.26665
 Alpha  occ. eigenvalues --  -10.26279 -10.26103 -10.25391 -10.25317 -10.24998
 Alpha  occ. eigenvalues --  -10.24348 -10.24333 -10.24096 -10.24095 -10.24037
 Alpha  occ. eigenvalues --  -10.23936 -10.23886 -10.23871 -10.23787 -10.23524
 Alpha  occ. eigenvalues --  -10.23519 -10.23459 -10.23431 -10.23397 -10.23342
 Alpha  occ. eigenvalues --  -10.23328 -10.23285 -10.23138 -10.23127 -10.23071
 Alpha  occ. eigenvalues --  -10.23065 -10.22951 -10.22814 -10.22733 -10.22673
 Alpha  occ. eigenvalues --  -10.22572 -10.22527 -10.22427 -10.22400 -10.22349
 Alpha  occ. eigenvalues --  -10.22328 -10.22262 -10.22258 -10.22228 -10.22190
 Alpha  occ. eigenvalues --  -10.22173 -10.22079 -10.21940 -10.21915 -10.21811
 Alpha  occ. eigenvalues --  -10.21757 -10.21518 -10.21048 -10.21011 -10.20931
 Alpha  occ. eigenvalues --  -10.20839 -10.20698 -10.20696 -10.20141 -10.19901
 Alpha  occ. eigenvalues --  -10.19697  -8.00088  -5.93855  -5.93500  -5.92847
 Alpha  occ. eigenvalues --   -1.10357  -1.10145  -1.10119  -1.08758  -1.07888
 Alpha  occ. eigenvalues --   -1.07373  -1.05602  -0.99027  -0.97565  -0.96346
 Alpha  occ. eigenvalues --   -0.93856  -0.93302  -0.90731  -0.90231  -0.89222
 Alpha  occ. eigenvalues --   -0.89161  -0.88623  -0.88303  -0.84804  -0.84585
 Alpha  occ. eigenvalues --   -0.83074  -0.82062  -0.81938  -0.81358  -0.81342
 Alpha  occ. eigenvalues --   -0.81190  -0.81050  -0.80601  -0.80590  -0.78924
 Alpha  occ. eigenvalues --   -0.78407  -0.78123  -0.78084  -0.77113  -0.76805
 Alpha  occ. eigenvalues --   -0.76532  -0.75069  -0.74980  -0.74625  -0.74590
 Alpha  occ. eigenvalues --   -0.74495  -0.73947  -0.73805  -0.73088  -0.72946
 Alpha  occ. eigenvalues --   -0.72125  -0.69681  -0.68799  -0.68010  -0.67584
 Alpha  occ. eigenvalues --   -0.66264  -0.66123  -0.65341  -0.65195  -0.64847
 Alpha  occ. eigenvalues --   -0.64663  -0.64272  -0.64128  -0.64086  -0.63943
 Alpha  occ. eigenvalues --   -0.63857  -0.63455  -0.62319  -0.61905  -0.61093
 Alpha  occ. eigenvalues --   -0.60830  -0.60798  -0.60701  -0.60228  -0.59999
 Alpha  occ. eigenvalues --   -0.59657  -0.59538  -0.59377  -0.57871  -0.57319
 Alpha  occ. eigenvalues --   -0.57276  -0.57152  -0.56888  -0.56402  -0.55227
 Alpha  occ. eigenvalues --   -0.54558  -0.54019  -0.52993  -0.52683  -0.52229
 Alpha  occ. eigenvalues --   -0.51474  -0.51330  -0.51087  -0.50894  -0.50761
 Alpha  occ. eigenvalues --   -0.50287  -0.50170  -0.49578  -0.49459  -0.49296
 Alpha  occ. eigenvalues --   -0.49265  -0.48849  -0.48465  -0.48219  -0.48143
 Alpha  occ. eigenvalues --   -0.48068  -0.47591  -0.47487  -0.47394  -0.47179
 Alpha  occ. eigenvalues --   -0.46789  -0.46648  -0.46593  -0.46535  -0.46232
 Alpha  occ. eigenvalues --   -0.46169  -0.46003  -0.45814  -0.45397  -0.45341
 Alpha  occ. eigenvalues --   -0.45226  -0.45088  -0.44960  -0.44746  -0.44558
 Alpha  occ. eigenvalues --   -0.44493  -0.44439  -0.44290  -0.44040  -0.43943
 Alpha  occ. eigenvalues --   -0.43800  -0.43696  -0.43639  -0.43611  -0.43355
 Alpha  occ. eigenvalues --   -0.43071  -0.42900  -0.42761  -0.42642  -0.42404
 Alpha  occ. eigenvalues --   -0.42357  -0.42091  -0.42025  -0.41937  -0.41856
 Alpha  occ. eigenvalues --   -0.41632  -0.41548  -0.41439  -0.41243  -0.41035
 Alpha  occ. eigenvalues --   -0.40952  -0.40738  -0.40363  -0.39918  -0.39697
 Alpha  occ. eigenvalues --   -0.39386  -0.39101  -0.39067  -0.38996  -0.38923
 Alpha  occ. eigenvalues --   -0.38741  -0.38535  -0.38402  -0.38290  -0.38126
 Alpha  occ. eigenvalues --   -0.37774  -0.37584  -0.37334  -0.37036  -0.36831
 Alpha  occ. eigenvalues --   -0.36610  -0.36593  -0.36561  -0.36441  -0.36349
 Alpha  occ. eigenvalues --   -0.36150  -0.36059  -0.35849  -0.35495  -0.35442
 Alpha  occ. eigenvalues --   -0.35276  -0.35207  -0.35172  -0.34938  -0.34831
 Alpha  occ. eigenvalues --   -0.34746  -0.34586  -0.34555  -0.34502  -0.34206
 Alpha  occ. eigenvalues --   -0.33986  -0.33969  -0.33851  -0.33590  -0.32918
 Alpha  occ. eigenvalues --   -0.32635  -0.32349  -0.32296  -0.31698  -0.31034
 Alpha  occ. eigenvalues --   -0.30699  -0.30610  -0.30172  -0.29780  -0.29297
 Alpha  occ. eigenvalues --   -0.28743  -0.28705  -0.28337  -0.27841  -0.27700
 Alpha  occ. eigenvalues --   -0.27467  -0.26820  -0.26632  -0.26495  -0.25887
 Alpha  occ. eigenvalues --   -0.25680  -0.24363  -0.24094  -0.23974  -0.23804
 Alpha  occ. eigenvalues --   -0.22952  -0.22049
 Alpha virt. eigenvalues --   -0.09049  -0.03785  -0.03007  -0.02725  -0.02326
 Alpha virt. eigenvalues --   -0.01808  -0.01377  -0.01183  -0.00997  -0.00914
 Alpha virt. eigenvalues --   -0.00631  -0.00575  -0.00390  -0.00171  -0.00115

 Mulliken charges:
               1
     1  C   -0.182889
     2  C    0.955034
     3  H    0.299816
     4  C   -0.869855
     5  H    0.178431
     6  H    0.155978
     7  N    1.134566
     8  H   -0.007413
     9  C   -0.399999
    10  C   -0.155237
    11  C   -0.117328
    12  C   -0.255659
    13  C   -0.160244
    14  H    0.243239
    15  H    0.365482
    16  C   -0.375864
    17  H    0.263857
    18  C   -0.336719
    19  H    0.233143
    20  C   -0.686472
    21  H    0.252430
    22  H    0.284485
    23  C    0.186080
    24  H   -0.328078
    25  H    0.486662
    26  H    0.333341
    27  C    1.214549
    28  C   -1.017798
    29  H    0.228140
    30  H    0.177336
    31  H    0.169273
    32  C   -0.191651
    33  H    0.204543
    34  H    0.184143
    35  C   -0.799034
    36  H    0.206543
    37  H    0.185898
    38  H    0.177573
    39  C   -1.059435
    40  C   -0.050942
    41  H    0.232410
    42  H    0.285407
    43  C   -0.253141
    44  H    0.276178
    45  H    0.293742
    46  C   -0.626376
    47  O   -0.087048
    48  N   -0.121373
    49  H    0.248729
    50  H   -0.360854
    51  C   -1.117733
    52  C   -0.270413
    53  H    0.215398
    54  H    0.240150
    55  C    0.905196
    56  C   -0.837310
    57  H    0.249405
    58  C   -0.398678
    59  H    0.236477
    60  C   -0.014486
    61  O   -0.014626
    62  H    0.347147
    63  C   -0.299769
    64  H   -0.078159
    65  C   -0.194733
    66  H    0.349807
    67  C   -1.174074
    68  C   -0.355484
    69  H    0.131630
    70  H    0.228323
    71  C    0.479367
    72  C   -0.236355
    73  H    0.235239
    74  C   -0.687936
    75  H    0.244055
    76  C   -0.314018
    77  H    0.237584
    78  C   -0.065401
    79  H    0.364487
    80  C    0.245576
    81  H   -0.018316
    82  C   -0.914150
    83  C   -0.101485
    84  H   -0.222065
    85  H    0.334676
    86  S    0.272647
    87  C   -1.413818
    88  H    0.286172
    89  H    0.307805
    90  C    0.692512
    91  C   -0.672722
    92  C   -0.466012
    93  H    0.323050
    94  C   -0.085828
    95  C   -0.713867
    96  H    0.280310
    97  H    0.209342
    98  H    0.230473
    99  C    0.514733
   100  H   -0.275462
   101  C   -0.644052
   102  N    0.669792
   103  C   -1.454990
   104  C    0.087473
   105  O   -0.009527
   106  N    0.117102
   107  H    0.494170
   108  C   -0.157130
   109  O   -0.221576
   110  N    0.054856
   111  C    0.154208
   112  N    0.587559
   113  C   -0.366888
   114  C   -1.040412
   115  C   -0.110088
   116  H    0.472566
   117  H   -0.142378
   118  C    0.085883
   119  C    0.241906
   120  H    0.114465
   121  C   -0.436861
   122  H    0.475193
   123  C   -0.644003
   124  O   -0.045727
   125  H    0.310751
   126  C   -0.315528
   127  H    0.248524
   128  C   -0.096147
   129  H    0.260825
   130  C   -0.064375
   131  C   -1.008317
   132  H    0.219593
   133  H    0.260828
   134  C    0.471641
   135  C   -0.596221
   136  H    0.239293
   137  C    0.035393
   138  H    0.297115
   139  C   -0.578504
   140  O    0.098808
   141  H    0.315376
   142  C   -0.011719
   143  H    0.256579
   144  C   -0.351205
   145  H    0.286116
   146  H    0.190642
   147  H    0.219086
   148  H    0.214905
   149  H    0.217407
   150  H    0.305072
   151  H    0.242073
   152  H    0.303743
   153  H    0.211148
   154  H    0.206390
   155  H    0.183656
   156  H    0.201528
   157  H    0.200504
   158  C   -0.824750
   159  H   -0.454747
   160  H    0.218377
   161  H    0.170166
   162  H    0.210619
   163  H    0.201118
   164  H   -0.465909
   165  H    0.248764
   166  H    0.220615
   167  H    0.181031
   168  H    0.138505
   169  H    0.262105
   170  H    0.225529
   171  H    0.179801
 Sum of Mulliken charges =  -0.00000

 Dipole moment (field-independent basis, Debye):
    X=             -3.9915    Y=             11.1879    Z=              8.3810  Tot=             14.5376
 Quadrupole moment (field-independent basis, Debye-Ang):
   XX=           -477.0685   YY=           -513.5535   ZZ=           -495.8671
   XY=             20.4307   XZ=             28.9130   YZ=            -10.0432

 Normal termination of Gaussian 16 at Fri Apr  1 20:17:51 2022.
