 Gaussian 16, Revision B.01,
 Gaussian 16:  ES64L-G16RevB.01 20-Dec-2017

 ----------------------------------------------------------------------
 #p PBE1PBE/6-311++G(d,p) scrf=(CPCM,solvent=water,Read) scf=(XQC,Tight
 )
 ----------------------------------------------------------------------

 ------------
 optimisation
 ------------
 Symbolic Z-matrix:
 Charge =  0 Multiplicity = 1

                         Standard orientation:
 ---------------------------------------------------------------------
 Center     Atomic      Atomic             Coordinates (Angstroms)
 Number     Number       Type             X           Y           Z
 ---------------------------------------------------------------------
      1          6           0       -0.675072   -0.659571    0.302381
      2          6           0       -1.083674   -1.692198   -0.383693
      3          1           0       -1.121332   -2.698032    0.040754
      4          6           0       -0.274098    0.410749    0.953611
      5          1           0       -1.004594    0.994034    1.511739
      6          1           0       -1.310368    0.459130   -2.189211
      7          7           0        1.016005    0.931090    0.978960
      8          1           0        1.709779    0.370634    0.491305
      9          6           0        1.482164    1.553503    2.215887
     10          6           0        2.876373    1.113634    2.610576
     11          6           0        3.421050   -0.165645    2.568985
     12          6           0        3.622587    2.200682    3.071517
     13          6           0        4.745242   -0.345153    2.973001
     14          1           0        2.826400   -1.015018    2.235205
     15          1           0        5.185000   -1.337131    2.963522
     16          6           0        5.510133    0.744893    3.396956
     17          1           0        6.543521    0.592260    3.693755
     18          6           0        4.950025    2.025040    3.455166
     19          1           0        5.543193    2.868633    3.798715
     20          6           0        2.776619    3.452551    3.087152
     21          1           0        2.411387    3.633360    4.106297
     22          1           0        3.322888    4.345539    2.771091
     23          6           0        1.615755    3.092371    2.139608
     24          1           0        1.881169    3.353639    1.107798
     25          1           0        0.680964    3.599785    2.394882
     26          1           0        0.783656    1.281837    3.021188
     27          6           0        6.099196   -2.808080    0.817061
     28          6           0        5.897743   -3.829121   -0.301995
     29          1           0        6.864671   -4.147102   -0.712299
     30          1           0        5.365632   -4.717007    0.051566
     31          1           0        5.306202   -3.404466   -1.120330
     32          6           0        6.855851   -3.406311    2.009389
     33          1           0        7.830345   -3.776799    1.660956
     34          1           0        7.077652   -2.602944    2.726160
     35          6           0        6.098144   -4.522111    2.726744
     36          1           0        6.627713   -4.843692    3.628260
     37          1           0        5.099369   -4.181597    3.025073
     38          1           0        5.970195   -5.400392    2.087614
     39          6           0        6.152099   -1.228800   -3.407159
     40          6           0        5.099300   -0.142608   -3.198914
     41          1           0        5.300068    0.407515   -2.269892
     42          1           0        5.166131    0.594243   -4.006094
     43          6           0        3.673504   -0.707917   -3.184203
     44          1           0        2.932134    0.096605   -3.194539
     45          1           0        3.495694   -1.321856   -4.071438
     46          6           0        3.379945   -1.581319   -1.982799
     47          8           0        3.016688   -2.764289   -2.104516
     48          7           0        3.530952   -1.015828   -0.769258
     49          1           0        3.996038   -0.122073   -0.625738
     50          1           0        3.382107   -1.602577    0.047070
     51          6           0        3.400071    7.085870   -2.556411
     52          6           0        2.540318    6.409190   -1.483377
     53          1           0        2.427834    7.081497   -0.624699
     54          1           0        1.533034    6.229274   -1.877758
     55          6           0        3.137222    5.098997   -1.027646
     56          6           0        4.103353    5.052963   -0.018858
     57          1           0        4.405530    5.974029    0.474905
     58          6           0        4.695148    3.852316    0.365148
     59          1           0        5.450407    3.831938    1.146585
     60          6           0        4.299282    2.664820   -0.247826
     61          8           0        4.846686    1.451967    0.083893
     62          1           0        5.216616    1.477469    0.985372
     63          6           0        3.334875    2.685460   -1.253570
     64          1           0        3.010890    1.752142   -1.706825
     65          6           0        2.774179    3.897430   -1.642320
     66          1           0        2.021476    3.906795   -2.426098
     67          6           0       -0.354632    5.498215    0.568076
     68          6           0       -1.294972    4.324712    0.277979
     69          1           0       -1.022348    3.467572    0.905323
     70          1           0       -2.316983    4.604303    0.559550
     71          6           0       -1.258324    3.913030   -1.172568
     72          6           0       -2.044312    4.575730   -2.121404
     73          1           0       -2.698727    5.383132   -1.798073
     74          6           0       -2.010402    4.207161   -3.465452
     75          1           0       -2.638432    4.724922   -4.184244
     76          6           0       -1.175895    3.171884   -3.883590
     77          1           0       -1.151214    2.877655   -4.928138
     78          6           0       -0.371753    2.516697   -2.951148
     79          1           0        0.281194    1.705122   -3.265727
     80          6           0       -0.416674    2.881750   -1.603694
     81          1           0        0.213530    2.367919   -0.877283
     82          6           0       -6.621041    1.316184    3.321200
     83          6           0       -6.871968    1.585154    1.843902
     84          1           0       -5.922886    1.773944    1.336831
     85          1           0       -7.520225    2.456208    1.704766
     86         16           0       -7.649131    0.140533    1.049697
     87          6           0       -7.366001    0.572715   -0.711470
     88          1           0       -7.732964    1.588042   -0.880509
     89          1           0       -8.018164   -0.105550   -1.268912
     90          6           0       -5.933589    0.407905   -1.153471
     91          6           0       -5.446198   -0.892271   -1.326024
     92          6           0       -4.134988   -1.132031   -1.721014
     93          1           0       -6.121330   -1.724353   -1.151342
     94          6           0       -5.082777    1.499228   -1.394889
     95          6           0       -5.557440    2.931663   -1.316231
     96          1           0       -6.302717    3.144043   -2.090937
     97          1           0       -6.017951    3.169612   -0.352378
     98          1           0       -4.716972    3.614967   -1.465711
     99          6           0       -3.753444    1.250633   -1.747193
    100          1           0       -3.076139    2.083148   -1.921928
    101          6           0       -3.263398   -0.043745   -1.897625
    102          7           0       -1.966806   -0.307721   -2.315184
    103          6           0       -1.416443   -1.569217   -1.889716
    104          6           0       -0.065658   -1.730274   -2.572423
    105          8           0        0.677447   -0.775959   -2.713679
    106          7           0        0.257933   -3.008219   -2.899424
    107          1           0        1.238528   -3.198147   -3.109675
    108          6           0       -0.631003   -4.100952   -2.887765
    109          8           0       -0.193018   -5.205462   -3.143318
    110          7           0       -1.967542   -3.873861   -2.627629
    111          6           0       -2.364135   -2.694477   -2.245943
    112          7           0       -3.674794   -2.437274   -2.043227
    113          6           0       -4.671557   -3.482939   -2.266300
    114          6           0       -4.586389   -2.442502    2.972001
    115          6           0       -3.420188   -1.853840    2.174132
    116          1           0       -2.516148   -2.456935    2.330840
    117          1           0       -3.645568   -1.908235    1.101713
    118          6           0       -3.137921   -0.412793    2.519986
    119          6           0       -3.580568    0.608044    1.676516
    120          1           0       -4.124364    0.342681    0.773679
    121          6           0       -3.328737    1.948523    1.953221
    122          1           0       -3.662914    2.732268    1.277902
    123          6           0       -2.616314    2.292306    3.103284
    124          8           0       -2.370886    3.615877    3.326897
    125          1           0       -1.879773    3.715418    4.156315
    126          6           0       -2.173597    1.287358    3.968285
    127          1           0       -1.616517    1.551890    4.864193
    128          6           0       -2.436071   -0.048857    3.672238
    129          1           0       -2.070948   -0.821524    4.345349
    130          6           0       -3.419507   -5.044055    0.480501
    131          6           0       -2.431332   -5.489984    1.561928
    132          1           0       -2.763215   -5.121893    2.540274
    133          1           0       -2.435363   -6.585521    1.623779
    134          6           0       -1.028080   -4.993567    1.297211
    135          6           0       -0.336300   -4.221376    2.234819
    136          1           0       -0.805692   -3.998175    3.190555
    137          6           0        0.938056   -3.722928    1.973500
    138          1           0        1.464225   -3.119567    2.707039
    139          6           0        1.547567   -3.998190    0.751080
    140          8           0        2.796829   -3.506421    0.510500
    141          1           0        2.951092   -3.510744   -0.465899
    142          6           0        0.884300   -4.785961   -0.192211
    143          1           0        1.361488   -5.013090   -1.141936
    144          6           0       -0.388950   -5.272017    0.083493
    145          1           0       -0.889502   -5.869466   -0.674839
    146          1           0       -6.190722    2.205754    3.790857
    147          1           0       -5.913643    0.490858    3.447442
    148          1           0       -7.548487    1.067058    3.845728
    149          1           0       -5.155783   -3.747860   -1.322608
    150          1           0       -4.166586   -4.354947   -2.672071
    151          1           0       -5.422288   -3.117472   -2.970930
    152          1           0        0.680171    5.232566    0.325881
    153          1           0       -0.400516    5.780766    1.624844
    154          1           0       -0.628604    6.371759   -0.033407
    155          1           0        3.501648    6.437511   -3.432282
    156          1           0        4.404577    7.291224   -2.173009
    157          1           0        2.955977    8.031991   -2.879091
    158          6           0        6.815864   -1.560981    0.300206
    159          1           0        5.100658   -2.514630    1.171519
    160          1           0        7.808036   -1.821393   -0.089398
    161          1           0        6.951397   -0.821605    1.098696
    162          1           0        6.251947   -1.081565   -0.506885
    163          1           0       -3.141093   -5.441093   -0.500899
    164          1           0       -3.426988   -3.951042    0.397846
    165          1           0       -4.435806   -5.381166    0.709403
    166          1           0        7.162287   -0.810069   -3.388610
    167          1           0        6.005752   -1.725935   -4.371532
    168          1           0        6.096501   -1.996151   -2.627684
    169          1           0       -5.508701   -1.888473    2.766930
    170          1           0       -4.390558   -2.390563    4.048223
    171          1           0       -4.753098   -3.491774    2.705514
 ---------------------------------------------------------------------

 SCF Done:  E(RPBE1PBE) =  -3820.29519754     A.U. after   17 cycles

 The electronic state is 1-A.
 Alpha  occ. eigenvalues --  -89.01116 -19.24643 -19.24333 -19.22269 -19.19896
 Alpha  occ. eigenvalues --  -19.19046 -19.18471 -14.45995 -14.43018 -14.40731
 Alpha  occ. eigenvalues --  -14.40202 -14.39757 -14.38060 -10.36356 -10.35235
 Alpha  occ. eigenvalues --  -10.34031 -10.33814 -10.30756 -10.29485 -10.29404
 Alpha  occ. eigenvalues --  -10.28287 -10.28066 -10.27775 -10.27018 -10.26534
 Alpha  occ. eigenvalues --  -10.25841 -10.25707 -10.24737 -10.24458 -10.24457
 Alpha  occ. eigenvalues --  -10.24283 -10.24267 -10.24215 -10.24161 -10.24153
 Alpha  occ. eigenvalues --  -10.23964 -10.23954 -10.23780 -10.23746 -10.23489
 Alpha  occ. eigenvalues --  -10.23408 -10.23332 -10.23320 -10.23223 -10.23192
 Alpha  occ. eigenvalues --  -10.23144 -10.23064 -10.22998 -10.22988 -10.22972
 Alpha  occ. eigenvalues --  -10.22949 -10.22906 -10.22771 -10.22761 -10.22716
 Alpha  occ. eigenvalues --  -10.22639 -10.22618 -10.22611 -10.22597 -10.22561
 Alpha  occ. eigenvalues --  -10.22502 -10.22418 -10.22245 -10.22215 -10.22088
 Alpha  occ. eigenvalues --  -10.22040 -10.22032 -10.22013 -10.21997 -10.21787
 Alpha  occ. eigenvalues --  -10.21777 -10.21367 -10.21108 -10.21098 -10.20931
 Alpha  occ. eigenvalues --  -10.20786 -10.20661 -10.20645 -10.20262 -10.20092
 Alpha  occ. eigenvalues --  -10.19819  -7.99489  -5.93251  -5.92902  -5.92254
 Alpha  occ. eigenvalues --   -1.11100  -1.10257  -1.10156  -1.09035  -1.08889
 Alpha  occ. eigenvalues --   -1.07614  -1.05260  -0.98485  -0.97886  -0.96874
 Alpha  occ. eigenvalues --   -0.94064  -0.93669  -0.90985  -0.89614  -0.89237
 Alpha  occ. eigenvalues --   -0.89054  -0.88930  -0.88282  -0.84938  -0.84437
 Alpha  occ. eigenvalues --   -0.83272  -0.82796  -0.82210  -0.81456  -0.81321
 Alpha  occ. eigenvalues --   -0.81023  -0.80687  -0.80546  -0.79983  -0.79147
 Alpha  occ. eigenvalues --   -0.78153  -0.78043  -0.77835  -0.77312  -0.77146
 Alpha  occ. eigenvalues --   -0.76169  -0.75189  -0.75143  -0.74707  -0.74669
 Alpha  occ. eigenvalues --   -0.74400  -0.73938  -0.73843  -0.73093  -0.72997
 Alpha  occ. eigenvalues --   -0.71819  -0.69851  -0.69008  -0.67813  -0.67300
 Alpha  occ. eigenvalues --   -0.66125  -0.65718  -0.65597  -0.65377  -0.65169
 Alpha  occ. eigenvalues --   -0.64769  -0.64482  -0.64320  -0.64045  -0.64009
 Alpha  occ. eigenvalues --   -0.63934  -0.63604  -0.62834  -0.61384  -0.61295
 Alpha  occ. eigenvalues --   -0.60900  -0.60812  -0.60395  -0.60199  -0.59863
 Alpha  occ. eigenvalues --   -0.59731  -0.59714  -0.59492  -0.58229  -0.57395
 Alpha  occ. eigenvalues --   -0.57283  -0.57034  -0.56902  -0.56620  -0.55350
 Alpha  occ. eigenvalues --   -0.55129  -0.53928  -0.53090  -0.52994  -0.51715
 Alpha  occ. eigenvalues --   -0.51595  -0.51483  -0.51138  -0.51058  -0.51002
 Alpha  occ. eigenvalues --   -0.50284  -0.49925  -0.49630  -0.49552  -0.49362
 Alpha  occ. eigenvalues --   -0.49236  -0.48684  -0.48514  -0.48361  -0.48146
 Alpha  occ. eigenvalues --   -0.47873  -0.47699  -0.47531  -0.47373  -0.47241
 Alpha  occ. eigenvalues --   -0.46841  -0.46680  -0.46547  -0.46401  -0.46266
 Alpha  occ. eigenvalues --   -0.45985  -0.45910  -0.45773  -0.45617  -0.45417
 Alpha  occ. eigenvalues --   -0.45380  -0.45172  -0.44957  -0.44768  -0.44564
 Alpha  occ. eigenvalues --   -0.44541  -0.44441  -0.44259  -0.44158  -0.44091
 Alpha  occ. eigenvalues --   -0.43974  -0.43832  -0.43693  -0.43483  -0.43230
 Alpha  occ. eigenvalues --   -0.43176  -0.43000  -0.42930  -0.42824  -0.42657
 Alpha  occ. eigenvalues --   -0.42560  -0.42332  -0.42299  -0.42099  -0.42030
 Alpha  occ. eigenvalues --   -0.41844  -0.41755  -0.41319  -0.41068  -0.41033
 Alpha  occ. eigenvalues --   -0.40745  -0.40511  -0.40445  -0.40222  -0.40152
 Alpha  occ. eigenvalues --   -0.39797  -0.39288  -0.39168  -0.39099  -0.38937
 Alpha  occ. eigenvalues --   -0.38845  -0.38694  -0.38523  -0.38304  -0.38169
 Alpha  occ. eigenvalues --   -0.37613  -0.37432  -0.37248  -0.36825  -0.36782
 Alpha  occ. eigenvalues --   -0.36732  -0.36606  -0.36464  -0.36392  -0.36317
 Alpha  occ. eigenvalues --   -0.36231  -0.36126  -0.35995  -0.35755  -0.35590
 Alpha  occ. eigenvalues --   -0.35354  -0.35279  -0.35197  -0.35047  -0.35019
 Alpha  occ. eigenvalues --   -0.34777  -0.34650  -0.34539  -0.34409  -0.34275
 Alpha  occ. eigenvalues --   -0.34235  -0.34026  -0.33801  -0.33520  -0.32823
 Alpha  occ. eigenvalues --   -0.32798  -0.32701  -0.32580  -0.32184  -0.31901
 Alpha  occ. eigenvalues --   -0.31045  -0.30986  -0.30578  -0.30224  -0.29646
 Alpha  occ. eigenvalues --   -0.29137  -0.29040  -0.28132  -0.27814  -0.27644
 Alpha  occ. eigenvalues --   -0.27338  -0.26870  -0.26773  -0.26655  -0.26162
 Alpha  occ. eigenvalues --   -0.25361  -0.24268  -0.23912  -0.23577  -0.23044
 Alpha  occ. eigenvalues --   -0.22225  -0.21194
 Alpha virt. eigenvalues --   -0.05714  -0.03283  -0.02869  -0.02314  -0.02143
 Alpha virt. eigenvalues --   -0.01795  -0.01551  -0.01491  -0.01150  -0.01111
 Alpha virt. eigenvalues --   -0.00790  -0.00464  -0.00331  -0.00265  -0.00098

 Mulliken charges:
               1
     1  C    0.327858
     2  C    0.187061
     3  H    0.352895
     4  C   -0.770392
     5  H    0.248331
     6  H    0.267431
     7  N    0.932573
     8  H   -0.157957
     9  C   -0.072815
    10  C   -0.031102
    11  C   -0.008754
    12  C    0.031207
    13  C   -0.171084
    14  H    0.091395
    15  H    0.328809
    16  C   -0.485735
    17  H    0.254826
    18  C   -0.397262
    19  H    0.240961
    20  C   -1.013301
    21  H    0.247451
    22  H    0.290884
    23  C    0.188050
    24  H   -0.249268
    25  H    0.440352
    26  H    0.381645
    27  C    1.186462
    28  C   -1.050594
    29  H    0.230503
    30  H    0.171648
    31  H    0.182561
    32  C   -0.184224
    33  H    0.215731
    34  H    0.182190
    35  C   -0.745096
    36  H    0.208694
    37  H    0.174936
    38  H    0.181866
    39  C   -1.052662
    40  C   -0.129839
    41  H    0.219633
    42  H    0.282523
    43  C   -0.442900
    44  H    0.237535
    45  H    0.279359
    46  C   -0.472469
    47  O   -0.091527
    48  N    0.015676
    49  H    0.272647
    50  H   -0.436628
    51  C   -1.080152
    52  C   -0.249452
    53  H    0.227990
    54  H    0.194570
    55  C    0.898744
    56  C   -0.779387
    57  H    0.249851
    58  C   -0.294773
    59  H    0.238579
    60  C    0.069134
    61  O    0.012331
    62  H    0.307856
    63  C   -0.270844
    64  H   -0.191857
    65  C   -0.391550
    66  H    0.391808
    67  C   -1.182483
    68  C   -0.120703
    69  H   -0.035462
    70  H    0.313192
    71  C    0.457610
    72  C   -0.477231
    73  H    0.237797
    74  C   -0.662848
    75  H    0.251449
    76  C   -0.373405
    77  H    0.235645
    78  C   -0.045677
    79  H    0.500230
    80  C    0.186294
    81  H   -0.013815
    82  C   -0.943520
    83  C   -0.161139
    84  H   -0.154477
    85  H    0.323370
    86  S    0.236433
    87  C   -1.771594
    88  H    0.294716
    89  H    0.301483
    90  C    1.324564
    91  C   -0.671156
    92  C   -0.546452
    93  H    0.302962
    94  C   -0.264879
    95  C   -0.741845
    96  H    0.263457
    97  H    0.209021
    98  H    0.214604
    99  C    0.134585
   100  H    0.333760
   101  C   -0.675444
   102  N    0.791660
   103  C   -1.635964
   104  C    0.442628
   105  O   -0.054049
   106  N   -0.091561
   107  H    0.500709
   108  C   -0.228363
   109  O   -0.200633
   110  N    0.127676
   111  C   -0.112368
   112  N    0.568693
   113  C   -0.381072
   114  C   -1.129495
   115  C    0.146064
   116  H    0.449812
   117  H   -0.029614
   118  C    0.141540
   119  C    0.350655
   120  H   -0.096596
   121  C   -0.258399
   122  H    0.550194
   123  C   -0.793250
   124  O   -0.036651
   125  H    0.303646
   126  C   -0.163268
   127  H    0.237280
   128  C   -0.254884
   129  H    0.258942
   130  C   -0.230214
   131  C   -1.115909
   132  H    0.212376
   133  H    0.259872
   134  C    0.500611
   135  C   -0.580301
   136  H    0.269225
   137  C    0.163291
   138  H    0.287518
   139  C   -0.683574
   140  O    0.126133
   141  H    0.371849
   142  C   -0.028952
   143  H    0.253657
   144  C   -0.313698
   145  H    0.291613
   146  H    0.198728
   147  H    0.197782
   148  H    0.227791
   149  H    0.220210
   150  H    0.289224
   151  H    0.244172
   152  H    0.230187
   153  H    0.214809
   154  H    0.216295
   155  H    0.189055
   156  H    0.195010
   157  H    0.195608
   158  C   -0.812899
   159  H   -0.519756
   160  H    0.221398
   161  H    0.174683
   162  H    0.246215
   163  H    0.216764
   164  H   -0.212986
   165  H    0.242033
   166  H    0.221420
   167  H    0.184656
   168  H    0.150811
   169  H    0.170209
   170  H    0.230140
   171  H    0.179633
 Sum of Mulliken charges =  -0.00000

 Dipole moment (field-independent basis, Debye):
    X=              0.6912    Y=             12.6712    Z=              6.5808  Tot=             14.2949
 Quadrupole moment (field-independent basis, Debye-Ang):
   XX=           -478.1783   YY=           -516.5983   ZZ=           -486.6349
   XY=             15.2443   XZ=             23.9181   YZ=             -5.8316

 Normal termination of Gaussian 16 at Mon Apr  4 13:02:32 2022.
